 # Fcc Au oriented X=[100] Y=[010] Z=[001].
  
         733  atoms
           1  atom types
 
      0.000000000000       9.899494940000  xlo xhi
      0.000000000000       9.899494940000  ylo yhi
      0.000000000000       9.899494940000  zlo zhi
 
Masses
 
            1   196.96656900            # Au
 
Atoms # atomic
 
         1    1        2.828427120000       3.535533910000       0.707106780000
         2    1        3.535533910000       2.828427120000       0.707106780000
         3    1        4.242640690000       3.535533910000       0.707106780000
         4    1        4.949747470000       2.828427120000       0.707106780000
         5    1        5.656854250000       3.535533910000       0.707106780000
         6    1        6.363961030000       2.828427120000       0.707106780000
         7    1        7.071067810000       3.535533910000       0.707106780000
         8    1        2.828427120000       4.949747470000       0.707106780000
         9    1        3.535533910000       4.242640690000       0.707106780000
        10    1        4.949747470000       4.949747470000       0.000000000000
        11    1        4.242640690000       4.949747470000       0.707106780000
        12    1        4.949747470000       4.242640690000       0.707106780000
        13    1        5.656854250000       4.949747470000       0.707106780000
        14    1        6.363961030000       4.242640690000       0.707106780000
        15    1        7.071067810000       4.949747470000       0.707106780000
        16    1        2.828427120000       6.363961030000       0.707106780000
        17    1        3.535533910000       5.656854250000       0.707106780000
        18    1        4.242640690000       6.363961030000       0.707106780000
        19    1        4.949747470000       5.656854250000       0.707106780000
        20    1        5.656854250000       6.363961030000       0.707106780000
        21    1        6.363961030000       5.656854250000       0.707106780000
        22    1        7.071067810000       6.363961030000       0.707106780000
        23    1        3.535533910000       7.071067810000       0.707106780000
        24    1        4.949747470000       7.071067810000       0.707106780000
        25    1        6.363961030000       7.071067810000       0.707106780000
        26    1        3.535533910000       2.121320340000       1.414213560000
        27    1        2.828427120000       2.121320340000       2.121320340000
        28    1        3.535533910000       1.414213560000       2.121320340000
        29    1        4.949747470000       2.121320340000       1.414213560000
        30    1        4.242640690000       2.121320340000       2.121320340000
        31    1        4.949747470000       1.414213560000       2.121320340000
        32    1        6.363961030000       2.121320340000       1.414213560000
        33    1        5.656854250000       2.121320340000       2.121320340000
        34    1        6.363961030000       1.414213560000       2.121320340000
        35    1        7.071067810000       2.121320340000       2.121320340000
        36    1        2.121320340000       3.535533910000       1.414213560000
        37    1        1.414213560000       3.535533910000       2.121320340000
        38    1        2.121320340000       2.828427120000       2.121320340000
        39    1        2.828427120000       2.828427120000       1.414213560000
        40    1        3.535533910000       3.535533910000       1.414213560000
        41    1        2.828427120000       3.535533910000       2.121320340000
        42    1        3.535533910000       2.828427120000       2.121320340000
        43    1        4.242640690000       2.828427120000       1.414213560000
        44    1        4.949747470000       3.535533910000       1.414213560000
        45    1        4.242640690000       3.535533910000       2.121320340000
        46    1        4.949747470000       2.828427120000       2.121320340000
        47    1        5.656854250000       2.828427120000       1.414213560000
        48    1        6.363961030000       3.535533910000       1.414213560000
        49    1        5.656854250000       3.535533910000       2.121320340000
        50    1        6.363961030000       2.828427120000       2.121320340000
        51    1        7.071067810000       2.828427120000       1.414213560000
        52    1        7.778174590000       3.535533910000       1.414213560000
        53    1        7.071067810000       3.535533910000       2.121320340000
        54    1        7.778174590000       2.828427120000       2.121320340000
        55    1        8.485281370000       3.535533910000       2.121320340000
        56    1        2.121320340000       4.949747470000       1.414213560000
        57    1        1.414213560000       4.949747470000       2.121320340000
        58    1        2.121320340000       4.242640690000       2.121320340000
        59    1        2.828427120000       4.242640690000       1.414213560000
        60    1        3.535533910000       4.949747470000       1.414213560000
        61    1        2.828427120000       4.949747470000       2.121320340000
        62    1        3.535533910000       4.242640690000       2.121320340000
        63    1        4.242640690000       4.242640690000       1.414213560000
        64    1        4.949747470000       4.949747470000       1.414213560000
        65    1        4.242640690000       4.949747470000       2.121320340000
        66    1        4.949747470000       4.242640690000       2.121320340000
        67    1        5.656854250000       4.242640690000       1.414213560000
        68    1        6.363961030000       4.949747470000       1.414213560000
        69    1        5.656854250000       4.949747470000       2.121320340000
        70    1        6.363961030000       4.242640690000       2.121320340000
        71    1        7.071067810000       4.242640690000       1.414213560000
        72    1        7.778174590000       4.949747470000       1.414213560000
        73    1        7.071067810000       4.949747470000       2.121320340000
        74    1        7.778174590000       4.242640690000       2.121320340000
        75    1        8.485281370000       4.949747470000       2.121320340000
        76    1        2.121320340000       6.363961030000       1.414213560000
        77    1        1.414213560000       6.363961030000       2.121320340000
        78    1        2.121320340000       5.656854250000       2.121320340000
        79    1        2.828427120000       5.656854250000       1.414213560000
        80    1        3.535533910000       6.363961030000       1.414213560000
        81    1        2.828427120000       6.363961030000       2.121320340000
        82    1        3.535533910000       5.656854250000       2.121320340000
        83    1        4.242640690000       5.656854250000       1.414213560000
        84    1        4.949747470000       6.363961030000       1.414213560000
        85    1        4.242640690000       6.363961030000       2.121320340000
        86    1        4.949747470000       5.656854250000       2.121320340000
        87    1        5.656854250000       5.656854250000       1.414213560000
        88    1        6.363961030000       6.363961030000       1.414213560000
        89    1        5.656854250000       6.363961030000       2.121320340000
        90    1        6.363961030000       5.656854250000       2.121320340000
        91    1        7.071067810000       5.656854250000       1.414213560000
        92    1        7.778174590000       6.363961030000       1.414213560000
        93    1        7.071067810000       6.363961030000       2.121320340000
        94    1        7.778174590000       5.656854250000       2.121320340000
        95    1        8.485281370000       6.363961030000       2.121320340000
        96    1        2.121320340000       7.071067810000       2.121320340000
        97    1        2.828427120000       7.071067810000       1.414213560000
        98    1        3.535533910000       7.778174590000       1.414213560000
        99    1        2.828427120000       7.778174590000       2.121320340000
       100    1        3.535533910000       7.071067810000       2.121320340000
       101    1        4.242640690000       7.071067810000       1.414213560000
       102    1        4.949747470000       7.778174590000       1.414213560000
       103    1        4.242640690000       7.778174590000       2.121320340000
       104    1        4.949747470000       7.071067810000       2.121320340000
       105    1        5.656854250000       7.071067810000       1.414213560000
       106    1        6.363961030000       7.778174590000       1.414213560000
       107    1        5.656854250000       7.778174590000       2.121320340000
       108    1        6.363961030000       7.071067810000       2.121320340000
       109    1        7.071067810000       7.071067810000       1.414213560000
       110    1        7.071067810000       7.778174590000       2.121320340000
       111    1        7.778174590000       7.071067810000       2.121320340000
       112    1        3.535533910000       8.485281370000       2.121320340000
       113    1        4.949747470000       8.485281370000       2.121320340000
       114    1        6.363961030000       8.485281370000       2.121320340000
       115    1        3.535533910000       0.707106780000       2.828427120000
       116    1        2.828427120000       0.707106780000       3.535533910000
       117    1        4.949747470000       0.707106780000       2.828427120000
       118    1        4.242640690000       0.707106780000       3.535533910000
       119    1        6.363961030000       0.707106780000       2.828427120000
       120    1        5.656854250000       0.707106780000       3.535533910000
       121    1        7.071067810000       0.707106780000       3.535533910000
       122    1        2.121320340000       2.121320340000       2.828427120000
       123    1        1.414213560000       2.121320340000       3.535533910000
       124    1        2.121320340000       1.414213560000       3.535533910000
       125    1        2.828427120000       1.414213560000       2.828427120000
       126    1        3.535533910000       2.121320340000       2.828427120000
       127    1        2.828427120000       2.121320340000       3.535533910000
       128    1        3.535533910000       1.414213560000       3.535533910000
       129    1        4.242640690000       1.414213560000       2.828427120000
       130    1        4.949747470000       2.121320340000       2.828427120000
       131    1        4.242640690000       2.121320340000       3.535533910000
       132    1        4.949747470000       1.414213560000       3.535533910000
       133    1        5.656854250000       1.414213560000       2.828427120000
       134    1        6.363961030000       2.121320340000       2.828427120000
       135    1        5.656854250000       2.121320340000       3.535533910000
       136    1        6.363961030000       1.414213560000       3.535533910000
       137    1        7.071067810000       1.414213560000       2.828427120000
       138    1        7.778174590000       2.121320340000       2.828427120000
       139    1        7.071067810000       2.121320340000       3.535533910000
       140    1        7.778174590000       1.414213560000       3.535533910000
       141    1        8.485281370000       2.121320340000       3.535533910000
       142    1        0.707106780000       3.535533910000       2.828427120000
       143    1        0.707106780000       2.828427120000       3.535533910000
       144    1        1.414213560000       2.828427120000       2.828427120000
       145    1        2.121320340000       3.535533910000       2.828427120000
       146    1        1.414213560000       3.535533910000       3.535533910000
       147    1        2.121320340000       2.828427120000       3.535533910000
       148    1        2.828427120000       2.828427120000       2.828427120000
       149    1        3.535533910000       3.535533910000       2.828427120000
       150    1        2.828427120000       3.535533910000       3.535533910000
       151    1        3.535533910000       2.828427120000       3.535533910000
       152    1        4.242640690000       2.828427120000       2.828427120000
       153    1        4.949747470000       3.535533910000       2.828427120000
       154    1        4.242640690000       3.535533910000       3.535533910000
       155    1        4.949747470000       2.828427120000       3.535533910000
       156    1        5.656854250000       2.828427120000       2.828427120000
       157    1        6.363961030000       3.535533910000       2.828427120000
       158    1        5.656854250000       3.535533910000       3.535533910000
       159    1        6.363961030000       2.828427120000       3.535533910000
       160    1        7.071067810000       2.828427120000       2.828427120000
       161    1        7.778174590000       3.535533910000       2.828427120000
       162    1        7.071067810000       3.535533910000       3.535533910000
       163    1        7.778174590000       2.828427120000       3.535533910000
       164    1        8.485281370000       2.828427120000       2.828427120000
       165    1        9.192388160000       3.535533910000       2.828427120000
       166    1        8.485281370000       3.535533910000       3.535533910000
       167    1        9.192388160000       2.828427120000       3.535533910000
       168    1        0.707106780000       4.949747470000       2.828427120000
       169    1        0.707106780000       4.242640690000       3.535533910000
       170    1        1.414213560000       4.242640690000       2.828427120000
       171    1        2.121320340000       4.949747470000       2.828427120000
       172    1        1.414213560000       4.949747470000       3.535533910000
       173    1        2.121320340000       4.242640690000       3.535533910000
       174    1        2.828427120000       4.242640690000       2.828427120000
       175    1        3.535533910000       4.949747470000       2.828427120000
       176    1        2.828427120000       4.949747470000       3.535533910000
       177    1        3.535533910000       4.242640690000       3.535533910000
       178    1        4.242640690000       4.242640690000       2.828427120000
       179    1        4.949747470000       4.949747470000       2.828427120000
       180    1        4.242640690000       4.949747470000       3.535533910000
       181    1        4.949747470000       4.242640690000       3.535533910000
       182    1        5.656854250000       4.242640690000       2.828427120000
       183    1        6.363961030000       4.949747470000       2.828427120000
       184    1        5.656854250000       4.949747470000       3.535533910000
       185    1        6.363961030000       4.242640690000       3.535533910000
       186    1        7.071067810000       4.242640690000       2.828427120000
       187    1        7.778174590000       4.949747470000       2.828427120000
       188    1        7.071067810000       4.949747470000       3.535533910000
       189    1        7.778174590000       4.242640690000       3.535533910000
       190    1        8.485281370000       4.242640690000       2.828427120000
       191    1        9.192388160000       4.949747470000       2.828427120000
       192    1        8.485281370000       4.949747470000       3.535533910000
       193    1        9.192388160000       4.242640690000       3.535533910000
       194    1        0.707106780000       6.363961030000       2.828427120000
       195    1        0.707106780000       5.656854250000       3.535533910000
       196    1        1.414213560000       5.656854250000       2.828427120000
       197    1        2.121320340000       6.363961030000       2.828427120000
       198    1        1.414213560000       6.363961030000       3.535533910000
       199    1        2.121320340000       5.656854250000       3.535533910000
       200    1        2.828427120000       5.656854250000       2.828427120000
       201    1        3.535533910000       6.363961030000       2.828427120000
       202    1        2.828427120000       6.363961030000       3.535533910000
       203    1        3.535533910000       5.656854250000       3.535533910000
       204    1        4.242640690000       5.656854250000       2.828427120000
       205    1        4.949747470000       6.363961030000       2.828427120000
       206    1        4.242640690000       6.363961030000       3.535533910000
       207    1        4.949747470000       5.656854250000       3.535533910000
       208    1        5.656854250000       5.656854250000       2.828427120000
       209    1        6.363961030000       6.363961030000       2.828427120000
       210    1        5.656854250000       6.363961030000       3.535533910000
       211    1        6.363961030000       5.656854250000       3.535533910000
       212    1        7.071067810000       5.656854250000       2.828427120000
       213    1        7.778174590000       6.363961030000       2.828427120000
       214    1        7.071067810000       6.363961030000       3.535533910000
       215    1        7.778174590000       5.656854250000       3.535533910000
       216    1        8.485281370000       5.656854250000       2.828427120000
       217    1        9.192388160000       6.363961030000       2.828427120000
       218    1        8.485281370000       6.363961030000       3.535533910000
       219    1        9.192388160000       5.656854250000       3.535533910000
       220    1        0.707106780000       7.071067810000       3.535533910000
       221    1        1.414213560000       7.071067810000       2.828427120000
       222    1        2.121320340000       7.778174590000       2.828427120000
       223    1        1.414213560000       7.778174590000       3.535533910000
       224    1        2.121320340000       7.071067810000       3.535533910000
       225    1        2.828427120000       7.071067810000       2.828427120000
       226    1        3.535533910000       7.778174590000       2.828427120000
       227    1        2.828427120000       7.778174590000       3.535533910000
       228    1        3.535533910000       7.071067810000       3.535533910000
       229    1        4.242640690000       7.071067810000       2.828427120000
       230    1        4.949747470000       7.778174590000       2.828427120000
       231    1        4.242640690000       7.778174590000       3.535533910000
       232    1        4.949747470000       7.071067810000       3.535533910000
       233    1        5.656854250000       7.071067810000       2.828427120000
       234    1        6.363961030000       7.778174590000       2.828427120000
       235    1        5.656854250000       7.778174590000       3.535533910000
       236    1        6.363961030000       7.071067810000       3.535533910000
       237    1        7.071067810000       7.071067810000       2.828427120000
       238    1        7.778174590000       7.778174590000       2.828427120000
       239    1        7.071067810000       7.778174590000       3.535533910000
       240    1        7.778174590000       7.071067810000       3.535533910000
       241    1        8.485281370000       7.071067810000       2.828427120000
       242    1        8.485281370000       7.778174590000       3.535533910000
       243    1        9.192388160000       7.071067810000       3.535533910000
       244    1        2.121320340000       8.485281370000       3.535533910000
       245    1        2.828427120000       8.485281370000       2.828427120000
       246    1        3.535533910000       9.192388160000       2.828427120000
       247    1        2.828427120000       9.192388160000       3.535533910000
       248    1        3.535533910000       8.485281370000       3.535533910000
       249    1        4.242640690000       8.485281370000       2.828427120000
       250    1        4.949747470000       9.192388160000       2.828427120000
       251    1        4.242640690000       9.192388160000       3.535533910000
       252    1        4.949747470000       8.485281370000       3.535533910000
       253    1        5.656854250000       8.485281370000       2.828427120000
       254    1        6.363961030000       9.192388160000       2.828427120000
       255    1        5.656854250000       9.192388160000       3.535533910000
       256    1        6.363961030000       8.485281370000       3.535533910000
       257    1        7.071067810000       8.485281370000       2.828427120000
       258    1        7.071067810000       9.192388160000       3.535533910000
       259    1        7.778174590000       8.485281370000       3.535533910000
       260    1        3.535533910000       0.707106780000       4.242640690000
       261    1        2.828427120000       0.707106780000       4.949747470000
       262    1        4.949747470000       0.707106780000       4.242640690000
       263    1        4.242640690000       0.707106780000       4.949747470000
       264    1        4.949747470000       0.000000000000       4.949747470000
       265    1        6.363961030000       0.707106780000       4.242640690000
       266    1        5.656854250000       0.707106780000       4.949747470000
       267    1        7.071067810000       0.707106780000       4.949747470000
       268    1        2.121320340000       2.121320340000       4.242640690000
       269    1        1.414213560000       2.121320340000       4.949747470000
       270    1        2.121320340000       1.414213560000       4.949747470000
       271    1        2.828427120000       1.414213560000       4.242640690000
       272    1        3.535533910000       2.121320340000       4.242640690000
       273    1        2.828427120000       2.121320340000       4.949747470000
       274    1        3.535533910000       1.414213560000       4.949747470000
       275    1        4.242640690000       1.414213560000       4.242640690000
       276    1        4.949747470000       2.121320340000       4.242640690000
       277    1        4.242640690000       2.121320340000       4.949747470000
       278    1        4.949747470000       1.414213560000       4.949747470000
       279    1        5.656854250000       1.414213560000       4.242640690000
       280    1        6.363961030000       2.121320340000       4.242640690000
       281    1        5.656854250000       2.121320340000       4.949747470000
       282    1        6.363961030000       1.414213560000       4.949747470000
       283    1        7.071067810000       1.414213560000       4.242640690000
       284    1        7.778174590000       2.121320340000       4.242640690000
       285    1        7.071067810000       2.121320340000       4.949747470000
       286    1        7.778174590000       1.414213560000       4.949747470000
       287    1        8.485281370000       2.121320340000       4.949747470000
       288    1        0.707106780000       3.535533910000       4.242640690000
       289    1        0.707106780000       2.828427120000       4.949747470000
       290    1        1.414213560000       2.828427120000       4.242640690000
       291    1        2.121320340000       3.535533910000       4.242640690000
       292    1        1.414213560000       3.535533910000       4.949747470000
       293    1        2.121320340000       2.828427120000       4.949747470000
       294    1        2.828427120000       2.828427120000       4.242640690000
       295    1        3.535533910000       3.535533910000       4.242640690000
       296    1        2.828427120000       3.535533910000       4.949747470000
       297    1        3.535533910000       2.828427120000       4.949747470000
       298    1        4.242640690000       2.828427120000       4.242640690000
       299    1        4.949747470000       3.535533910000       4.242640690000
       300    1        4.242640690000       3.535533910000       4.949747470000
       301    1        4.949747470000       2.828427120000       4.949747470000
       302    1        5.656854250000       2.828427120000       4.242640690000
       303    1        6.363961030000       3.535533910000       4.242640690000
       304    1        5.656854250000       3.535533910000       4.949747470000
       305    1        6.363961030000       2.828427120000       4.949747470000
       306    1        7.071067810000       2.828427120000       4.242640690000
       307    1        7.778174590000       3.535533910000       4.242640690000
       308    1        7.071067810000       3.535533910000       4.949747470000
       309    1        7.778174590000       2.828427120000       4.949747470000
       310    1        8.485281370000       2.828427120000       4.242640690000
       311    1        9.192388160000       3.535533910000       4.242640690000
       312    1        8.485281370000       3.535533910000       4.949747470000
       313    1        9.192388160000       2.828427120000       4.949747470000
       314    1        0.707106780000       4.949747470000       4.242640690000
       315    1        0.000000000000       4.949747470000       4.949747470000
       316    1        0.707106780000       4.242640690000       4.949747470000
       317    1        1.414213560000       4.242640690000       4.242640690000
       318    1        2.121320340000       4.949747470000       4.242640690000
       319    1        1.414213560000       4.949747470000       4.949747470000
       320    1        2.121320340000       4.242640690000       4.949747470000
       321    1        2.828427120000       4.242640690000       4.242640690000
       322    1        3.535533910000       4.949747470000       4.242640690000
       323    1        2.828427120000       4.949747470000       4.949747470000
       324    1        3.535533910000       4.242640690000       4.949747470000
       325    1        4.242640690000       4.242640690000       4.242640690000
       326    1        4.949747470000       4.949747470000       4.242640690000
       327    1        4.242640690000       4.949747470000       4.949747470000
       328    1        4.949747470000       4.242640690000       4.949747470000
       329    1        5.656854250000       4.242640690000       4.242640690000
       330    1        6.363961030000       4.949747470000       4.242640690000
       331    1        5.656854250000       4.949747470000       4.949747470000
       332    1        6.363961030000       4.242640690000       4.949747470000
       333    1        7.071067810000       4.242640690000       4.242640690000
       334    1        7.778174590000       4.949747470000       4.242640690000
       335    1        7.071067810000       4.949747470000       4.949747470000
       336    1        7.778174590000       4.242640690000       4.949747470000
       337    1        8.485281370000       4.242640690000       4.242640690000
       338    1        9.192388160000       4.949747470000       4.242640690000
       339    1        8.485281370000       4.949747470000       4.949747470000
       340    1        9.192388160000       4.242640690000       4.949747470000
       341    1        0.707106780000       6.363961030000       4.242640690000
       342    1        0.707106780000       5.656854250000       4.949747470000
       343    1        1.414213560000       5.656854250000       4.242640690000
       344    1        2.121320340000       6.363961030000       4.242640690000
       345    1        1.414213560000       6.363961030000       4.949747470000
       346    1        2.121320340000       5.656854250000       4.949747470000
       347    1        2.828427120000       5.656854250000       4.242640690000
       348    1        3.535533910000       6.363961030000       4.242640690000
       349    1        2.828427120000       6.363961030000       4.949747470000
       350    1        3.535533910000       5.656854250000       4.949747470000
       351    1        4.242640690000       5.656854250000       4.242640690000
       352    1        4.949747470000       6.363961030000       4.242640690000
       353    1        4.242640690000       6.363961030000       4.949747470000
       354    1        4.949747470000       5.656854250000       4.949747470000
       355    1        5.656854250000       5.656854250000       4.242640690000
       356    1        6.363961030000       6.363961030000       4.242640690000
       357    1        5.656854250000       6.363961030000       4.949747470000
       358    1        6.363961030000       5.656854250000       4.949747470000
       359    1        7.071067810000       5.656854250000       4.242640690000
       360    1        7.778174590000       6.363961030000       4.242640690000
       361    1        7.071067810000       6.363961030000       4.949747470000
       362    1        7.778174590000       5.656854250000       4.949747470000
       363    1        8.485281370000       5.656854250000       4.242640690000
       364    1        9.192388160000       6.363961030000       4.242640690000
       365    1        8.485281370000       6.363961030000       4.949747470000
       366    1        9.192388160000       5.656854250000       4.949747470000
       367    1        0.707106780000       7.071067810000       4.949747470000
       368    1        1.414213560000       7.071067810000       4.242640690000
       369    1        2.121320340000       7.778174590000       4.242640690000
       370    1        1.414213560000       7.778174590000       4.949747470000