gmx2lmp data file written by gc 

47 atoms
46 bonds
84 angles
90 dihedrals
0 impropers

5 atom types
5 bond types
10 angle types
10 dihedral types

-3.000 25.930 xlo xhi
-7.120 4.100 ylo yhi
-4.780 4.820 zlo zhi

Masses

1 12.011	#C2
2 12.011	#C3
3 1.008	#HP
4 15.999	#OP
5 32.060	#S

Atoms

  1 1 5 -0.240 0.000 0.000 0.000
  2 1 1 0.120 1.550 -0.630 -0.700
  3 1 3 0.060 1.600 -0.380 -1.780
  4 1 3 0.060 1.600 -1.730 -0.550
  5 1 1 0.120 2.750 -0.000 -0.000
  6 1 3 0.060 2.730 1.100 -0.150
  7 1 3 0.060 2.680 -0.250 1.080
  8 1 4 -0.480 3.910 -0.540 -0.580
  9 1 1 0.120 5.050 -0.250 0.200
  10 1 3 0.060 5.280 0.840 0.140
  11 1 3 0.060 4.920 -0.570 1.250
  12 1 1 0.120 6.210 -1.030 -0.380
  13 1 3 0.060 5.970 -2.120 -0.320
  14 1 3 0.060 6.320 -0.720 -1.450
  15 1 4 -0.480 7.380 -0.750 0.350
  16 1 1 0.120 8.470 -1.420 -0.250
  17 1 3 0.060 8.370 -2.520 -0.110
  18 1 3 0.060 8.560 -1.160 -1.330
  19 1 1 0.120 9.750 -0.960 0.430
  20 1 3 0.060 9.840 0.140 0.300
  21 1 3 0.060 9.670 -1.220 1.510
  22 1 4 -0.480 10.840 -1.620 -0.170
  23 1 1 0.120 12.020 -1.230 0.480
  24 1 3 0.060 12.210 -0.140 0.340
  25 1 3 0.060 11.990 -1.480 1.560
  26 1 1 0.120 13.190 -1.980 -0.130
  27 1 3 0.060 13.030 -3.070 0.010
  28 1 3 0.060 13.230 -1.730 -1.220
  29 1 4 -0.480 14.370 -1.570 0.530
  30 1 1 0.120 15.490 -2.140 -0.110
  31 1 3 0.060 15.460 -3.250 -0.040
  32 1 3 0.060 15.550 -1.820 -1.180
  33 1 1 0.120 16.750 -1.660 0.590
  34 1 3 0.060 16.800 -0.550 0.540
  35 1 3 0.060 16.660 -1.980 1.660
  36 1 4 -0.480 17.860 -2.220 -0.060
  37 1 1 0.120 18.990 -2.200 0.790
  38 1 3 0.060 19.380 -1.160 0.890
  39 1 3 0.060 18.750 -2.610 1.800
  40 1 1 0.080 20.060 -3.110 0.200
  41 1 3 0.060 20.370 -2.760 -0.810
  42 1 3 0.060 19.630 -4.120 0.060
  43 1 4 -0.400 21.140 -3.230 1.110
  44 1 2 0.020 22.140 -2.270 0.850
  45 1 3 0.060 22.930 -2.710 0.210
  46 1 3 0.060 22.600 -1.980 1.820
  47 1 3 0.060 21.760 -1.320 0.410

Bonds

  1 5 1 2
  2 2 2 3
  3 2 2 4
  4 1 2 5
  5 2 5 6
  6 2 5 7
  7 3 5 8
  8 4 8 9
  9 2 9 10
  10 2 9 11
  11 1 9 12
  12 2 12 13
  13 2 12 14
  14 3 12 15
  15 4 15 16
  16 2 16 17
  17 2 16 18
  18 1 16 19
  19 2 19 20
  20 2 19 21
  21 3 19 22
  22 4 22 23
  23 2 23 24
  24 2 23 25
  25 1 23 26
  26 2 26 27
  27 2 26 28
  28 3 26 29
  29 4 29 30
  30 2 30 31
  31 2 30 32
  32 1 30 33
  33 2 33 34
  34 2 33 35
  35 3 33 36
  36 4 36 37
  37 2 37 38
  38 2 37 39
  39 1 37 40
  40 2 40 41
  41 2 40 42
  42 3 40 43
  43 4 43 44
  44 2 44 45
  45 2 44 46
  46 2 44 47

Angles

  1 10 1 2 3
  2 10 1 2 4
  3 9 1 2 5
  4 1 2 5 6
  5 1 2 5 7
  6 2 2 5 8
  7 5 3 2 4
  8 4 3 2 5
  9 4 4 2 5
  10 3 5 8 9
  11 5 6 5 7
  12 6 6 5 8
  13 6 7 5 8
  14 8 8 9 10
  15 8 8 9 11
  16 7 8 9 12
  17 1 9 12 13
  18 1 9 12 14
  19 2 9 12 15
  20 5 10 9 11
  21 4 10 9 12
  22 4 11 9 12
  23 3 12 15 16
  24 5 13 12 14
  25 6 13 12 15
  26 6 14 12 15
  27 8 15 16 17
  28 8 15 16 18
  29 7 15 16 19
  30 1 16 19 20
  31 1 16 19 21
  32 2 16 19 22
  33 5 17 16 18
  34 4 17 16 19
  35 4 18 16 19
  36 3 19 22 23
  37 5 20 19 21
  38 6 20 19 22
  39 6 21 19 22
  40 8 22 23 24
  41 8 22 23 25
  42 7 22 23 26
  43 1 23 26 27
  44 1 23 26 28
  45 2 23 26 29
  46 5 24 23 25
  47 4 24 23 26
  48 4 25 23 26
  49 3 26 29 30
  50 5 27 26 28
  51 6 27 26 29
  52 6 28 26 29
  53 8 29 30 31
  54 8 29 30 32
  55 7 29 30 33
  56 1 30 33 34
  57 1 30 33 35
  58 2 30 33 36
  59 5 31 30 32
  60 4 31 30 33
  61 4 32 30 33
  62 3 33 36 37
  63 5 34 33 35
  64 6 34 33 36
  65 6 35 33 36
  66 8 36 37 38
  67 8 36 37 39
  68 7 36 37 40
  69 1 37 40 41
  70 1 37 40 42
  71 2 37 40 43
  72 5 38 37 39
  73 4 38 37 40
  74 4 39 37 40
  75 3 40 43 44
  76 5 41 40 42
  77 6 41 40 43
  78 6 42 40 43
  79 8 43 44 45
  80 8 43 44 46
  81 8 43 44 47
  82 5 45 44 46
  83 5 45 44 47
  84 5 46 44 47

Dihedrals

  1 9 1 2 5 6
  2 9 1 2 5 7
  3 10 1 2 5 8
  4 1 2 5 8 9
  5 4 3 2 5 6
  6 4 3 2 5 7
  7 5 3 2 5 8
  8 4 4 2 5 6
  9 4 4 2 5 7
  10 5 4 2 5 8
  11 3 5 8 9 10
  12 3 5 8 9 11
  13 2 5 8 9 12
  14 6 6 5 8 9
  15 6 7 5 8 9
  16 7 8 9 12 13
  17 7 8 9 12 14
  18 8 8 9 12 15
  19 1 9 12 15 16
  20 4 10 9 12 13
  21 4 10 9 12 14
  22 5 10 9 12 15
  23 4 11 9 12 13
  24 4 11 9 12 14
  25 5 11 9 12 15
  26 3 12 15 16 17
  27 3 12 15 16 18
  28 2 12 15 16 19
  29 6 13 12 15 16
  30 6 14 12 15 16
  31 7 15 16 19 20
  32 7 15 16 19 21
  33 8 15 16 19 22
  34 1 16 19 22 23
  35 4 17 16 19 20
  36 4 17 16 19 21
  37 5 17 16 19 22
  38 4 18 16 19 20
  39 4 18 16 19 21
  40 5 18 16 19 22
  41 3 19 22 23 24
  42 3 19 22 23 25
  43 2 19 22 23 26
  44 6 20 19 22 23
  45 6 21 19 22 23
  46 7 22 23 26 27
  47 7 22 23 26 28
  48 8 22 23 26 29
  49 1 23 26 29 30
  50 4 24 23 26 27
  51 4 24 23 26 28
  52 5 24 23 26 29
  53 4 25 23 26 27
  54 4 25 23 26 28
  55 5 25 23 26 29
  56 3 26 29 30 31
  57 3 26 29 30 32
  58 2 26 29 30 33
  59 6 27 26 29 30
  60 6 28 26 29 30
  61 7 29 30 33 34
  62 7 29 30 33 35
  63 8 29 30 33 36
  64 1 30 33 36 37
  65 4 31 30 33 34
  66 4 31 30 33 35
  67 5 31 30 33 36
  68 4 32 30 33 34
  69 4 32 30 33 35
  70 5 32 30 33 36
  71 3 33 36 37 38
  72 3 33 36 37 39
  73 2 33 36 37 40
  74 6 34 33 36 37
  75 6 35 33 36 37
  76 7 36 37 40 41
  77 7 36 37 40 42
  78 8 36 37 40 43
  79 1 37 40 43 44
  80 4 38 37 40 41
  81 4 38 37 40 42
  82 5 38 37 40 43
  83 4 39 37 40 41
  84 4 39 37 40 42
  85 5 39 37 40 43
  86 3 40 43 44 45
  87 3 40 43 44 46
  88 3 40 43 44 47
  89 6 41 40 43 44
  90 6 42 40 43 44
