lammps data file written by polyGraft 

1640 atoms
5616 bonds
0 angles
0 dihedrals
0 impropers

3 atom types
5 bond types
0 angle types
0 dihedral types
0 improper types

-11.288 22.842 xlo xhi
-11.528 22.842 ylo yhi
0.000 13.435 zlo zhi

Atoms

1 1 1 11.842 5.635 0.707
2 1 1 12.842 5.627 0.707
3 1 1 13.842 5.619 0.707
4 1 1 14.842 5.610 0.707
5 1 1 15.842 5.602 0.707
6 1 1 16.842 5.594 0.707
7 1 1 17.842 5.586 0.707
8 1 1 18.842 5.577 0.707
9 1 1 19.842 5.569 0.707
10 1 1 20.842 5.561 0.707
11 1 1 21.842 5.553 0.707
12 1 1 22.842 5.545 0.707
13 2 1 11.842 5.635 2.121
14 2 1 12.842 5.627 2.121
15 2 1 13.842 5.619 2.121
16 2 1 14.842 5.610 2.121
17 2 1 15.842 5.602 2.121
18 2 1 16.842 5.594 2.121
19 2 1 17.842 5.586 2.121
20 2 1 18.842 5.577 2.121
21 2 1 19.842 5.569 2.121
22 2 1 20.842 5.561 2.121
23 2 1 21.842 5.553 2.121
24 2 1 22.842 5.545 2.121
25 3 1 11.842 5.635 4.950
26 3 1 12.842 5.627 4.950
27 3 1 13.842 5.619 4.950
28 3 1 14.842 5.610 4.950
29 3 1 15.842 5.602 4.950
30 3 1 16.842 5.594 4.950
31 3 1 17.842 5.586 4.950
32 3 1 18.842 5.577 4.950
33 3 1 19.842 5.569 4.950
34 3 1 20.842 5.561 4.950
35 3 1 21.842 5.553 4.950
36 3 1 22.842 5.545 4.950
37 4 1 11.794 6.867 7.071
38 4 1 12.776 7.057 7.071
39 4 1 13.758 7.247 7.071
40 4 1 14.740 7.437 7.071
41 4 1 15.721 7.627 7.071
42 4 1 16.703 7.817 7.071
43 4 1 17.685 8.007 7.071
44 4 1 18.667 8.196 7.071
45 4 1 19.649 8.386 7.071
46 4 1 20.630 8.576 7.071
47 4 1 21.612 8.766 7.071
48 4 1 22.594 8.956 7.071
49 5 2 11.842 5.635 9.192
50 5 2 12.842 5.627 9.192
51 5 2 13.842 5.619 9.192
52 5 2 14.842 5.610 9.192
53 5 2 15.842 5.602 9.192
54 5 2 16.842 5.594 9.192
55 6 2 11.842 5.635 12.021
56 6 2 12.842 5.627 12.021
57 6 2 13.842 5.619 12.021
58 6 2 14.842 5.610 12.021
59 6 2 15.842 5.602 12.021
60 6 2 16.842 5.594 12.021
61 7 1 10.608 9.365 0.707
62 7 1 11.409 9.963 0.707
63 7 1 12.210 10.562 0.707
64 7 1 13.011 11.161 0.707
65 7 1 13.812 11.759 0.707
66 7 1 14.613 12.358 0.707
67 7 1 15.414 12.957 0.707
68 7 1 16.215 13.555 0.707
69 7 1 17.016 14.154 0.707
70 7 1 17.817 14.753 0.707
71 7 1 18.618 15.351 0.707
72 7 1 19.419 15.950 0.707
73 8 1 10.608 9.365 2.121
74 8 1 11.409 9.963 2.121
75 8 1 12.210 10.562 2.121
76 8 1 13.011 11.161 2.121
77 8 1 13.812 11.759 2.121
78 8 1 14.613 12.358 2.121
79 8 1 15.414 12.957 2.121
80 8 1 16.215 13.555 2.121
81 8 1 17.016 14.154 2.121
82 8 1 17.817 14.753 2.121
83 8 1 18.618 15.351 2.121
84 8 1 19.419 15.950 2.121
85 9 1 10.608 9.365 4.950
86 9 1 11.409 9.963 4.950
87 9 1 12.210 10.562 4.950
88 9 1 13.011 11.161 4.950
89 9 1 13.812 11.759 4.950
90 9 1 14.613 12.358 4.950
91 9 1 15.414 12.957 4.950
92 9 1 16.215 13.555 4.950
93 9 1 17.016 14.154 4.950
94 9 1 17.817 14.753 4.950
95 9 1 18.618 15.351 4.950
96 9 1 19.419 15.950 4.950
97 10 1 10.359 10.359 7.071
98 10 1 11.066 11.066 7.071
99 10 1 11.773 11.773 7.071
100 10 1 12.480 12.480 7.071
101 10 1 13.188 13.188 7.071
102 10 1 13.895 13.895 7.071
103 10 1 14.602 14.602 7.071
104 10 1 15.309 15.309 7.071
105 10 1 16.016 16.016 7.071
106 10 1 16.723 16.723 7.071
107 10 1 17.430 17.430 7.071
108 10 1 18.137 18.137 7.071
109 11 2 10.608 9.365 9.192
110 11 2 11.409 9.963 9.192
111 11 2 12.210 10.562 9.192
112 11 2 13.011 11.161 9.192
113 11 2 13.812 11.759 9.192
114 11 2 14.613 12.358 9.192
115 12 2 10.608 9.365 12.021
116 12 2 11.409 9.963 12.021
117 12 2 12.210 10.562 12.021
118 12 2 13.011 11.161 12.021
119 12 2 13.812 11.759 12.021
120 12 2 14.613 12.358 12.021
121 13 1 8.045 11.657 0.707
122 13 1 8.412 12.587 0.707
123 13 1 8.780 13.517 0.707
124 13 1 9.147 14.447 0.707
125 13 1 9.514 15.377 0.707
126 13 1 9.882 16.307 0.707
127 13 1 10.249 17.237 0.707
128 13 1 10.617 18.167 0.707
129 13 1 10.984 19.097 0.707
130 13 1 11.352 20.027 0.707
131 13 1 11.719 20.958 0.707
132 13 1 12.086 21.888 0.707
133 14 1 8.045 11.657 2.121
134 14 1 8.412 12.587 2.121
135 14 1 8.780 13.517 2.121
136 14 1 9.147 14.447 2.121
137 14 1 9.514 15.377 2.121
138 14 1 9.882 16.307 2.121
139 14 1 10.249 17.237 2.121
140 14 1 10.617 18.167 2.121
141 14 1 10.984 19.097 2.121
142 14 1 11.352 20.027 2.121
143 14 1 11.719 20.958 2.121
144 14 1 12.086 21.888 2.121
145 15 1 8.045 11.657 4.950
146 15 1 8.412 12.587 4.950
147 15 1 8.780 13.517 4.950
148 15 1 9.147 14.447 4.950
149 15 1 9.514 15.377 4.950
150 15 1 9.882 16.307 4.950
151 15 1 10.249 17.237 4.950
152 15 1 10.617 18.167 4.950
153 15 1 10.984 19.097 4.950
154 15 1 11.352 20.027 4.950
155 15 1 11.719 20.958 4.950
156 15 1 12.086 21.888 4.950
157 16 1 8.045 11.657 6.364
158 16 1 8.412 12.587 6.364
159 16 1 8.780 13.517 6.364
160 16 1 9.147 14.447 6.364
161 16 1 9.514 15.377 6.364
162 16 1 9.882 16.307 6.364
163 16 1 10.249 17.237 6.364
164 16 1 10.617 18.167 6.364
165 16 1 10.984 19.097 6.364
166 16 1 11.352 20.027 6.364
167 16 1 11.719 20.958 6.364
168 16 1 12.086 21.888 6.364
169 17 2 8.045 11.657 9.192
170 17 2 8.412 12.587 9.192
171 17 2 8.780 13.517 9.192
172 17 2 9.147 14.447 9.192
173 17 2 9.514 15.377 9.192
174 17 2 9.882 16.307 9.192
175 18 2 8.045 11.657 12.021
176 18 2 8.412 12.587 12.021
177 18 2 8.780 13.517 12.021
178 18 2 9.147 14.447 12.021
179 18 2 9.514 15.377 12.021
180 18 2 9.882 16.307 12.021
181 19 1 4.405 11.786 0.000
182 19 1 4.200 12.765 0.000
183 19 1 3.995 13.743 0.000
184 19 1 3.789 14.722 0.000
185 19 1 3.584 15.701 0.000
186 19 1 3.378 16.679 0.000
187 19 1 3.173 17.658 0.000
188 19 1 2.968 18.637 0.000
189 19 1 2.762 19.615 0.000
190 19 1 2.557 20.594 0.000
191 19 1 2.351 21.573 0.000
192 19 1 2.146 22.551 0.000
193 20 1 4.405 11.786 2.828
194 20 1 4.200 12.765 2.828
195 20 1 3.995 13.743 2.828
196 20 1 3.789 14.722 2.828
197 20 1 3.584 15.701 2.828
198 20 1 3.378 16.679 2.828
199 20 1 3.173 17.658 2.828
200 20 1 2.968 18.637 2.828
201 20 1 2.762 19.615 2.828
202 20 1 2.557 20.594 2.828
203 20 1 2.351 21.573 2.828
204 20 1 2.146 22.551 2.828
205 21 1 5.635 11.842 4.950
206 21 1 5.627 12.842 4.950
207 21 1 5.619 13.842 4.950
208 21 1 5.610 14.842 4.950
209 21 1 5.602 15.842 4.950
210 21 1 5.594 16.842 4.950
211 21 1 5.586 17.842 4.950
212 21 1 5.577 18.842 4.950
213 21 1 5.569 19.842 4.950
214 21 1 5.561 20.842 4.950
215 21 1 5.553 21.842 4.950
216 21 1 5.545 22.842 4.950
217 22 1 4.405 11.786 7.071
218 22 1 4.200 12.765 7.071
219 22 1 3.995 13.743 7.071
220 22 1 3.789 14.722 7.071
221 22 1 3.584 15.701 7.071
222 22 1 3.378 16.679 7.071
223 22 1 3.173 17.658 7.071
224 22 1 2.968 18.637 7.071
225 22 1 2.762 19.615 7.071
226 22 1 2.557 20.594 7.071
227 22 1 2.351 21.573 7.071
228 22 1 2.146 22.551 7.071
229 23 2 5.635 11.842 9.192
230 23 2 5.627 12.842 9.192
231 23 2 5.619 13.842 9.192
232 23 2 5.610 14.842 9.192
233 23 2 5.602 15.842 9.192
234 23 2 5.594 16.842 9.192
235 24 2 4.405 11.786 11.314
236 24 2 4.200 12.765 11.314
237 24 2 3.995 13.743 11.314
238 24 2 3.789 14.722 11.314
239 24 2 3.584 15.701 11.314
240 24 2 3.378 16.679 11.314
241 25 1 1.921 10.587 0.707
242 25 1 1.312 11.380 0.707
243 25 1 0.703 12.173 0.707
244 25 1 0.094 12.966 0.707
245 25 1 -0.515 13.759 0.707
246 25 1 -1.124 14.552 0.707
247 25 1 -1.733 15.345 0.707
248 25 1 -2.342 16.139 0.707
249 25 1 -2.952 16.932 0.707
250 25 1 -3.561 17.725 0.707
251 25 1 -4.170 18.518 0.707
252 25 1 -4.779 19.311 0.707
253 26 1 1.921 10.587 2.121
254 26 1 1.312 11.380 2.121
255 26 1 0.703 12.173 2.121
256 26 1 0.094 12.966 2.121
257 26 1 -0.515 13.759 2.121
258 26 1 -1.124 14.552 2.121
259 26 1 -1.733 15.345 2.121
260 26 1 -2.342 16.139 2.121
261 26 1 -2.952 16.932 2.121
262 26 1 -3.561 17.725 2.121
263 26 1 -4.170 18.518 2.121
264 26 1 -4.779 19.311 2.121
265 27 1 1.921 10.587 4.950
266 27 1 1.312 11.380 4.950
267 27 1 0.703 12.173 4.950
268 27 1 0.094 12.966 4.950
269 27 1 -0.515 13.759 4.950
270 27 1 -1.124 14.552 4.950
271 27 1 -1.733 15.345 4.950
272 27 1 -2.342 16.139 4.950
273 27 1 -2.952 16.932 4.950
274 27 1 -3.561 17.725 4.950
275 27 1 -4.170 18.518 4.950
276 27 1 -4.779 19.311 4.950
277 28 1 1.921 10.587 6.364
278 28 1 1.312 11.380 6.364
279 28 1 0.703 12.173 6.364
280 28 1 0.094 12.966 6.364
281 28 1 -0.515 13.759 6.364
282 28 1 -1.124 14.552 6.364
283 28 1 -1.733 15.345 6.364
284 28 1 -2.342 16.139 6.364
285 28 1 -2.952 16.932 6.364
286 28 1 -3.561 17.725 6.364
287 28 1 -4.170 18.518 6.364
288 28 1 -4.779 19.311 6.364
289 29 2 1.921 10.587 9.192
290 29 2 1.312 11.380 9.192
291 29 2 0.703 12.173 9.192
292 29 2 0.094 12.966 9.192
293 29 2 -0.515 13.759 9.192
294 29 2 -1.124 14.552 9.192
295 30 2 1.921 10.587 12.021
296 30 2 1.312 11.380 12.021
297 30 2 0.703 12.173 12.021
298 30 2 0.094 12.966 12.021
299 30 2 -0.515 13.759 12.021
300 30 2 -1.124 14.552 12.021
301 31 1 -0.349 8.031 0.707
302 31 1 -1.281 8.393 0.707
303 31 1 -2.213 8.756 0.707
304 31 1 -3.145 9.118 0.707
305 31 1 -4.077 9.480 0.707
306 31 1 -5.009 9.842 0.707
307 31 1 -5.941 10.205 0.707
308 31 1 -6.873 10.567 0.707
309 31 1 -7.805 10.929 0.707
310 31 1 -8.737 11.291 0.707
311 31 1 -9.669 11.654 0.707
312 31 1 -10.602 12.016 0.707
313 32 1 -0.482 6.859 2.828
314 32 1 -1.464 7.046 2.828
315 32 1 -2.447 7.233 2.828
316 32 1 -3.429 7.420 2.828
317 32 1 -4.411 7.607 2.828
318 32 1 -5.394 7.794 2.828
319 32 1 -6.376 7.981 2.828
320 32 1 -7.359 8.168 2.828
321 32 1 -8.341 8.355 2.828
322 32 1 -9.323 8.542 2.828
323 32 1 -10.306 8.729 2.828
324 32 1 -11.288 8.916 2.828
325 33 1 -0.349 8.031 4.950
326 33 1 -1.281 8.393 4.950
327 33 1 -2.213 8.756 4.950
328 33 1 -3.145 9.118 4.950
329 33 1 -4.077 9.480 4.950
330 33 1 -5.009 9.842 4.950
331 33 1 -5.941 10.205 4.950
332 33 1 -6.873 10.567 4.950
333 33 1 -7.805 10.929 4.950
334 33 1 -8.737 11.291 4.950
335 33 1 -9.669 11.654 4.950
336 33 1 -10.602 12.016 4.950
337 34 1 -0.482 6.859 7.071
338 34 1 -1.464 7.046 7.071
339 34 1 -2.447 7.233 7.071
340 34 1 -3.429 7.420 7.071
341 34 1 -4.411 7.607 7.071
342 34 1 -5.394 7.794 7.071
343 34 1 -6.376 7.981 7.071
344 34 1 -7.359 8.168 7.071
345 34 1 -8.341 8.355 7.071
346 34 1 -9.323 8.542 7.071
347 34 1 -10.306 8.729 7.071
348 34 1 -11.288 8.916 7.071
349 35 2 -0.349 8.031 9.192
350 35 2 -1.281 8.393 9.192
351 35 2 -2.213 8.756 9.192
352 35 2 -3.145 9.118 9.192
353 35 2 -4.077 9.480 9.192
354 35 2 -5.009 9.842 9.192
355 36 2 -0.482 6.859 11.314
356 36 2 -1.464 7.046 11.314
357 36 2 -2.447 7.233 11.314
358 36 2 -3.429 7.420 11.314
359 36 2 -4.411 7.607 11.314
360 36 2 -5.394 7.794 11.314
361 37 1 -0.335 3.248 0.707
362 37 1 -1.262 2.873 0.707
363 37 1 -2.189 2.498 0.707
364 37 1 -3.116 2.122 0.707
365 37 1 -4.043 1.747 0.707
366 37 1 -4.970 1.372 0.707
367 37 1 -5.897 0.997 0.707
368 37 1 -6.823 0.621 0.707
369 37 1 -7.750 0.246 0.707
370 37 1 -8.677 -0.129 0.707
371 37 1 -9.604 -0.505 0.707
372 37 1 -10.531 -0.880 0.707
373 38 1 -0.474 4.414 2.828
374 38 1 -1.453 4.212 2.828
375 38 1 -2.433 4.009 2.828
376 38 1 -3.412 3.807 2.828
377 38 1 -4.391 3.605 2.828
378 38 1 -5.371 3.403 2.828
379 38 1 -6.350 3.201 2.828
380 38 1 -7.329 2.998 2.828
381 38 1 -8.309 2.796 2.828
382 38 1 -9.288 2.594 2.828
383 38 1 -10.267 2.392 2.828
384 38 1 -11.247 2.190 2.828
385 39 1 -0.335 3.248 4.950
386 39 1 -1.262 2.873 4.950
387 39 1 -2.189 2.498 4.950
388 39 1 -3.116 2.122 4.950
389 39 1 -4.043 1.747 4.950
390 39 1 -4.970 1.372 4.950
391 39 1 -5.897 0.997 4.950
392 39 1 -6.823 0.621 4.950
393 39 1 -7.750 0.246 4.950
394 39 1 -8.677 -0.129 4.950
395 39 1 -9.604 -0.505 4.950
396 39 1 -10.531 -0.880 4.950
397 40 1 -0.474 4.414 7.071
398 40 1 -1.453 4.212 7.071
399 40 1 -2.433 4.009 7.071
400 40 1 -3.412 3.807 7.071
401 40 1 -4.391 3.605 7.071
402 40 1 -5.371 3.403 7.071
403 40 1 -6.350 3.201 7.071
404 40 1 -7.329 2.998 7.071
405 40 1 -8.309 2.796 7.071
406 40 1 -9.288 2.594 7.071
407 40 1 -10.267 2.392 7.071
408 40 1 -11.247 2.190 7.071
409 41 2 -0.335 3.248 9.192
410 41 2 -1.262 2.873 9.192
411 41 2 -2.189 2.498 9.192
412 41 2 -3.116 2.122 9.192
413 41 2 -4.043 1.747 9.192
414 41 2 -4.970 1.372 9.192
415 42 2 -0.474 4.414 11.314
416 42 2 -1.453 4.212 11.314
417 42 2 -2.433 4.009 11.314
418 42 2 -3.412 3.807 11.314
419 42 2 -4.391 3.605 11.314
420 42 2 -5.371 3.403 11.314
421 43 1 1.942 0.711 0.707
422 43 1 1.341 -0.088 0.707
423 43 1 0.740 -0.887 0.707
424 43 1 0.138 -1.686 0.707
425 43 1 -0.463 -2.485 0.707
426 43 1 -1.064 -3.284 0.707
427 43 1 -1.666 -4.083 0.707
428 43 1 -2.267 -4.882 0.707
429 43 1 -2.868 -5.681 0.707
430 43 1 -3.470 -6.480 0.707
431 43 1 -4.071 -7.279 0.707
432 43 1 -4.672 -8.078 0.707
433 44 1 1.942 0.711 2.121
434 44 1 1.341 -0.088 2.121
435 44 1 0.740 -0.887 2.121
436 44 1 0.138 -1.686 2.121
437 44 1 -0.463 -2.485 2.121
438 44 1 -1.064 -3.284 2.121
439 44 1 -1.666 -4.083 2.121
440 44 1 -2.267 -4.882 2.121
441 44 1 -2.868 -5.681 2.121
442 44 1 -3.470 -6.480 2.121
443 44 1 -4.071 -7.279 2.121
444 44 1 -4.672 -8.078 2.121
445 45 1 1.942 0.711 4.950
446 45 1 1.341 -0.088 4.950
447 45 1 0.740 -0.887 4.950
448 45 1 0.138 -1.686 4.950
449 45 1 -0.463 -2.485 4.950
450 45 1 -1.064 -3.284 4.950
451 45 1 -1.666 -4.083 4.950
452 45 1 -2.267 -4.882 4.950
453 45 1 -2.868 -5.681 4.950
454 45 1 -3.470 -6.480 4.950
455 45 1 -4.071 -7.279 4.950
456 45 1 -4.672 -8.078 4.950
457 46 1 1.942 0.711 6.364
458 46 1 1.341 -0.088 6.364
459 46 1 0.740 -0.887 6.364
460 46 1 0.138 -1.686 6.364
461 46 1 -0.463 -2.485 6.364
462 46 1 -1.064 -3.284 6.364
463 46 1 -1.666 -4.083 6.364
464 46 1 -2.267 -4.882 6.364
465 46 1 -2.868 -5.681 6.364
466 46 1 -3.470 -6.480 6.364
467 46 1 -4.071 -7.279 6.364
468 46 1 -4.672 -8.078 6.364
469 47 2 1.942 0.711 9.192
470 47 2 1.341 -0.088 9.192
471 47 2 0.740 -0.887 9.192
472 47 2 0.138 -1.686 9.192
473 47 2 -0.463 -2.485 9.192
474 47 2 -1.064 -3.284 9.192
475 48 2 1.942 0.711 12.021
476 48 2 1.341 -0.088 12.021
477 48 2 0.740 -0.887 12.021
478 48 2 0.138 -1.686 12.021
479 48 2 -0.463 -2.485 12.021
480 48 2 -1.064 -3.284 12.021
481 49 1 4.414 -0.474 0.000
482 49 1 4.212 -1.453 0.000
483 49 1 4.009 -2.433 0.000
484 49 1 3.807 -3.412 0.000
485 49 1 3.605 -4.391 0.000
486 49 1 3.403 -5.371 0.000
487 49 1 3.201 -6.350 0.000
488 49 1 2.998 -7.329 0.000
489 49 1 2.796 -8.309 0.000
490 49 1 2.594 -9.288 0.000
491 49 1 2.392 -10.267 0.000
492 49 1 2.190 -11.247 0.000
493 50 1 4.414 -0.474 2.828
494 50 1 4.212 -1.453 2.828
495 50 1 4.009 -2.433 2.828
496 50 1 3.807 -3.412 2.828
497 50 1 3.605 -4.391 2.828
498 50 1 3.403 -5.371 2.828
499 50 1 3.201 -6.350 2.828
500 50 1 2.998 -7.329 2.828
501 50 1 2.796 -8.309 2.828
502 50 1 2.594 -9.288 2.828
503 50 1 2.392 -10.267 2.828
504 50 1 2.190 -11.247 2.828
505 51 1 5.635 -0.529 4.950
506 51 1 5.627 -1.529 4.950
507 51 1 5.619 -2.529 4.950
508 51 1 5.611 -3.528 4.950
509 51 1 5.603 -4.528 4.950
510 51 1 5.595 -5.528 4.950
511 51 1 5.587 -6.528 4.950
512 51 1 5.579 -7.528 4.950
513 51 1 5.571 -8.528 4.950
514 51 1 5.563 -9.528 4.950
515 51 1 5.554 -10.528 4.950
516 51 1 5.546 -11.528 4.950
517 52 1 4.414 -0.474 7.071
518 52 1 4.212 -1.453 7.071
519 52 1 4.009 -2.433 7.071
520 52 1 3.807 -3.412 7.071
521 52 1 3.605 -4.391 7.071
522 52 1 3.403 -5.371 7.071
523 52 1 3.201 -6.350 7.071
524 52 1 2.998 -7.329 7.071
525 52 1 2.796 -8.309 7.071
526 52 1 2.594 -9.288 7.071
527 52 1 2.392 -10.267 7.071
528 52 1 2.190 -11.247 7.071
529 53 2 5.635 -0.529 9.192
530 53 2 5.627 -1.529 9.192
531 53 2 5.619 -2.529 9.192
532 53 2 5.611 -3.528 9.192
533 53 2 5.603 -4.528 9.192
534 53 2 5.595 -5.528 9.192
535 54 2 4.414 -0.474 11.314
536 54 2 4.212 -1.453 11.314
537 54 2 4.009 -2.433 11.314
538 54 2 3.807 -3.412 11.314
539 54 2 3.605 -4.391 11.314
540 54 2 3.403 -5.371 11.314
541 55 1 8.031 -0.349 0.707
542 55 1 8.393 -1.281 0.707
543 55 1 8.756 -2.213 0.707
544 55 1 9.118 -3.145 0.707
545 55 1 9.480 -4.077 0.707
546 55 1 9.842 -5.009 0.707
547 55 1 10.205 -5.941 0.707
548 55 1 10.567 -6.873 0.707
549 55 1 10.929 -7.805 0.707
550 55 1 11.291 -8.737 0.707
551 55 1 11.654 -9.669 0.707
552 55 1 12.016 -10.602 0.707
553 56 1 8.031 -0.349 2.121
554 56 1 8.393 -1.281 2.121
555 56 1 8.756 -2.213 2.121
556 56 1 9.118 -3.145 2.121
557 56 1 9.480 -4.077 2.121
558 56 1 9.842 -5.009 2.121
559 56 1 10.205 -5.941 2.121
560 56 1 10.567 -6.873 2.121
561 56 1 10.929 -7.805 2.121
562 56 1 11.291 -8.737 2.121
563 56 1 11.654 -9.669 2.121
564 56 1 12.016 -10.602 2.121
565 57 1 8.031 -0.349 4.950
566 57 1 8.393 -1.281 4.950
567 57 1 8.756 -2.213 4.950
568 57 1 9.118 -3.145 4.950
569 57 1 9.480 -4.077 4.950
570 57 1 9.842 -5.009 4.950
571 57 1 10.205 -5.941 4.950
572 57 1 10.567 -6.873 4.950
573 57 1 10.929 -7.805 4.950
574 57 1 11.291 -8.737 4.950
575 57 1 11.654 -9.669 4.950
576 57 1 12.016 -10.602 4.950
577 58 1 8.031 -0.349 6.364
578 58 1 8.393 -1.281 6.364
579 58 1 8.756 -2.213 6.364
580 58 1 9.118 -3.145 6.364
581 58 1 9.480 -4.077 6.364
582 58 1 9.842 -5.009 6.364
583 58 1 10.205 -5.941 6.364
584 58 1 10.567 -6.873 6.364
585 58 1 10.929 -7.805 6.364
586 58 1 11.291 -8.737 6.364
587 58 1 11.654 -9.669 6.364
588 58 1 12.016 -10.602 6.364
589 59 2 8.031 -0.349 9.192
590 59 2 8.393 -1.281 9.192
591 59 2 8.756 -2.213 9.192
592 59 2 9.118 -3.145 9.192
593 59 2 9.480 -4.077 9.192
594 59 2 9.842 -5.009 9.192
595 60 2 8.031 -0.349 12.021
596 60 2 8.393 -1.281 12.021
597 60 2 8.756 -2.213 12.021
598 60 2 9.118 -3.145 12.021
599 60 2 9.480 -4.077 12.021
600 60 2 9.842 -5.009 12.021
601 61 1 10.587 1.921 0.707
602 61 1 11.380 1.312 0.707
603 61 1 12.173 0.703 0.707
604 61 1 12.966 0.094 0.707
605 61 1 13.759 -0.515 0.707
606 61 1 14.552 -1.124 0.707
607 61 1 15.345 -1.733 0.707
608 61 1 16.139 -2.342 0.707
609 61 1 16.932 -2.952 0.707
610 61 1 17.725 -3.561 0.707
611 61 1 18.518 -4.170 0.707
612 61 1 19.311 -4.779 0.707
613 62 1 10.587 1.921 2.121
614 62 1 11.380 1.312 2.121
615 62 1 12.173 0.703 2.121
616 62 1 12.966 0.094 2.121
617 62 1 13.759 -0.515 2.121
618 62 1 14.552 -1.124 2.121
619 62 1 15.345 -1.733 2.121
620 62 1 16.139 -2.342 2.121
621 62 1 16.932 -2.952 2.121
622 62 1 17.725 -3.561 2.121
623 62 1 18.518 -4.170 2.121
624 62 1 19.311 -4.779 2.121
625 63 1 10.587 1.921 4.950
626 63 1 11.380 1.312 4.950
627 63 1 12.173 0.703 4.950
628 63 1 12.966 0.094 4.950
629 63 1 13.759 -0.515 4.950
630 63 1 14.552 -1.124 4.950
631 63 1 15.345 -1.733 4.950
632 63 1 16.139 -2.342 4.950
633 63 1 16.932 -2.952 4.950
634 63 1 17.725 -3.561 4.950
635 63 1 18.518 -4.170 4.950
636 63 1 19.311 -4.779 4.950
637 64 1 10.587 1.921 6.364
638 64 1 11.380 1.312 6.364
639 64 1 12.173 0.703 6.364
640 64 1 12.966 0.094 6.364
641 64 1 13.759 -0.515 6.364
642 64 1 14.552 -1.124 6.364
643 64 1 15.345 -1.733 6.364
644 64 1 16.139 -2.342 6.364
645 64 1 16.932 -2.952 6.364
646 64 1 17.725 -3.561 6.364
647 64 1 18.518 -4.170 6.364
648 64 1 19.311 -4.779 6.364
649 65 2 10.587 1.921 9.192
650 65 2 11.380 1.312 9.192
651 65 2 12.173 0.703 9.192
652 65 2 12.966 0.094 9.192
653 65 2 13.759 -0.515 9.192
654 65 2 14.552 -1.124 9.192
655 66 2 10.587 1.921 12.021
656 66 2 11.380 1.312 12.021
657 66 2 12.173 0.703 12.021
658 66 2 12.966 0.094 12.021
659 66 2 13.759 -0.515 12.021
660 66 2 14.552 -1.124 12.021
661 67 3 4.950 2.121 0.000
662 67 3 4.243 2.121 0.707
663 67 3 6.364 2.121 0.000
664 67 3 5.657 2.121 0.707
665 67 3 7.071 2.121 0.707
666 67 3 3.536 3.536 0.000
667 67 3 2.828 3.536 0.707
668 67 3 3.536 2.828 0.707
669 67 3 4.243 2.828 0.000
670 67 3 4.950 3.536 0.000
671 67 3 4.243 3.536 0.707
672 67 3 4.950 2.828 0.707
673 67 3 5.657 2.828 0.000
674 67 3 6.364 3.536 0.000
675 67 3 5.657 3.536 0.707
676 67 3 6.364 2.828 0.707
677 67 3 7.071 2.828 0.000
678 67 3 7.778 3.536 0.000
679 67 3 7.071 3.536 0.707
680 67 3 7.778 2.828 0.707
681 67 3 8.485 3.536 0.707
682 67 3 2.121 4.950 0.000
683 67 3 2.121 4.243 0.707
684 67 3 2.828 4.243 0.000
685 67 3 3.536 4.950 0.000
686 67 3 2.828 4.950 0.707
687 67 3 3.536 4.243 0.707
688 67 3 4.243 4.243 0.000
689 67 3 4.950 4.950 0.000
690 67 3 4.243 4.950 0.707
691 67 3 4.950 4.243 0.707
692 67 3 5.657 4.243 0.000
693 67 3 6.364 4.950 0.000
694 67 3 5.657 4.950 0.707
695 67 3 6.364 4.243 0.707
696 67 3 7.071 4.243 0.000
697 67 3 7.778 4.950 0.000
698 67 3 7.071 4.950 0.707
699 67 3 7.778 4.243 0.707
700 67 3 8.485 4.243 0.000
701 67 3 9.192 4.950 0.000
702 67 3 8.485 4.950 0.707
703 67 3 9.192 4.243 0.707
704 67 3 2.121 6.364 0.000
705 67 3 2.121 5.657 0.707
706 67 3 2.828 5.657 0.000
707 67 3 3.536 6.364 0.000
708 67 3 2.828 6.364 0.707
709 67 3 3.536 5.657 0.707
710 67 3 4.243 5.657 0.000
711 67 3 4.950 6.364 0.000
712 67 3 4.243 6.364 0.707
713 67 3 4.950 5.657 0.707
714 67 3 5.657 5.657 0.000
715 67 3 6.364 6.364 0.000
716 67 3 5.657 6.364 0.707
717 67 3 6.364 5.657 0.707
718 67 3 7.071 5.657 0.000
719 67 3 7.778 6.364 0.000
720 67 3 7.071 6.364 0.707
721 67 3 7.778 5.657 0.707
722 67 3 8.485 5.657 0.000
723 67 3 9.192 6.364 0.000
724 67 3 8.485 6.364 0.707
725 67 3 9.192 5.657 0.707
726 67 3 2.121 7.071 0.707
727 67 3 2.828 7.071 0.000
728 67 3 3.536 7.778 0.000
729 67 3 2.828 7.778 0.707
730 67 3 3.536 7.071 0.707
731 67 3 4.243 7.071 0.000
732 67 3 4.950 7.778 0.000
733 67 3 4.243 7.778 0.707
734 67 3 4.950 7.071 0.707
735 67 3 5.657 7.071 0.000
736 67 3 6.364 7.778 0.000
737 67 3 5.657 7.778 0.707
738 67 3 6.364 7.071 0.707
739 67 3 7.071 7.071 0.000
740 67 3 7.778 7.778 0.000
741 67 3 7.071 7.778 0.707
742 67 3 7.778 7.071 0.707
743 67 3 8.485 7.071 0.000
744 67 3 8.485 7.778 0.707
745 67 3 9.192 7.071 0.707
746 67 3 3.536 8.485 0.707
747 67 3 4.243 8.485 0.000
748 67 3 4.950 9.192 0.000
749 67 3 4.243 9.192 0.707
750 67 3 4.950 8.485 0.707
751 67 3 5.657 8.485 0.000
752 67 3 6.364 9.192 0.000
753 67 3 5.657 9.192 0.707
754 67 3 6.364 8.485 0.707
755 67 3 7.071 8.485 0.000
756 67 3 7.071 9.192 0.707
757 67 3 7.778 8.485 0.707
758 67 3 8.485 8.485 0.000
759 67 3 4.950 2.121 1.414
760 67 3 4.243 2.121 2.121
761 67 3 6.364 2.121 1.414
762 67 3 5.657 2.121 2.121
763 67 3 7.071 2.121 2.121
764 67 3 3.536 3.536 1.414
765 67 3 2.828 3.536 2.121
766 67 3 3.536 2.828 2.121
767 67 3 4.243 2.828 1.414
768 67 3 4.950 3.536 1.414
769 67 3 4.243 3.536 2.121
770 67 3 4.950 2.828 2.121
771 67 3 5.657 2.828 1.414
772 67 3 6.364 3.536 1.414
773 67 3 5.657 3.536 2.121
774 67 3 6.364 2.828 2.121
775 67 3 7.071 2.828 1.414
776 67 3 7.778 3.536 1.414
777 67 3 7.071 3.536 2.121
778 67 3 7.778 2.828 2.121
779 67 3 8.485 3.536 2.121
780 67 3 2.121 4.950 1.414
781 67 3 2.121 4.243 2.121
782 67 3 2.828 4.243 1.414
783 67 3 3.536 4.950 1.414
784 67 3 2.828 4.950 2.121
785 67 3 3.536 4.243 2.121
786 67 3 4.243 4.243 1.414
787 67 3 4.950 4.950 1.414
788 67 3 4.243 4.950 2.121
789 67 3 4.950 4.243 2.121
790 67 3 5.657 4.243 1.414
791 67 3 6.364 4.950 1.414
792 67 3 5.657 4.950 2.121
793 67 3 6.364 4.243 2.121
794 67 3 7.071 4.243 1.414
795 67 3 7.778 4.950 1.414
796 67 3 7.071 4.950 2.121
797 67 3 7.778 4.243 2.121
798 67 3 8.485 4.243 1.414
799 67 3 9.192 4.950 1.414
800 67 3 8.485 4.950 2.121
801 67 3 9.192 4.243 2.121
802 67 3 2.121 6.364 1.414
803 67 3 2.121 5.657 2.121
804 67 3 2.828 5.657 1.414
805 67 3 3.536 6.364 1.414
806 67 3 2.828 6.364 2.121
807 67 3 3.536 5.657 2.121
808 67 3 4.243 5.657 1.414
809 67 3 4.950 6.364 1.414
810 67 3 4.243 6.364 2.121
811 67 3 4.950 5.657 2.121
812 67 3 5.657 5.657 1.414
813 67 3 6.364 6.364 1.414
814 67 3 5.657 6.364 2.121
815 67 3 6.364 5.657 2.121
816 67 3 7.071 5.657 1.414
817 67 3 7.778 6.364 1.414
818 67 3 7.071 6.364 2.121
819 67 3 7.778 5.657 2.121
820 67 3 8.485 5.657 1.414
821 67 3 9.192 6.364 1.414
822 67 3 8.485 6.364 2.121
823 67 3 9.192 5.657 2.121
824 67 3 2.121 7.071 2.121
825 67 3 2.828 7.071 1.414
826 67 3 3.536 7.778 1.414
827 67 3 2.828 7.778 2.121
828 67 3 3.536 7.071 2.121
829 67 3 4.243 7.071 1.414
830 67 3 4.950 7.778 1.414
831 67 3 4.243 7.778 2.121
832 67 3 4.950 7.071 2.121
833 67 3 5.657 7.071 1.414
834 67 3 6.364 7.778 1.414
835 67 3 5.657 7.778 2.121
836 67 3 6.364 7.071 2.121
837 67 3 7.071 7.071 1.414
838 67 3 7.778 7.778 1.414
839 67 3 7.071 7.778 2.121
840 67 3 7.778 7.071 2.121
841 67 3 8.485 7.071 1.414
842 67 3 8.485 7.778 2.121
843 67 3 9.192 7.071 2.121
844 67 3 3.536 8.485 2.121
845 67 3 4.243 8.485 1.414
846 67 3 4.950 9.192 1.414
847 67 3 4.243 9.192 2.121
848 67 3 4.950 8.485 2.121
849 67 3 5.657 8.485 1.414
850 67 3 6.364 9.192 1.414
851 67 3 5.657 9.192 2.121
852 67 3 6.364 8.485 2.121
853 67 3 7.071 8.485 1.414
854 67 3 7.071 9.192 2.121
855 67 3 7.778 8.485 2.121
856 67 3 8.485 8.485 1.414
857 67 3 4.950 2.121 2.828
858 67 3 4.243 2.121 3.536
859 67 3 6.364 2.121 2.828
860 67 3 5.657 2.121 3.536
861 67 3 7.071 2.121 3.536
862 67 3 3.536 3.536 2.828
863 67 3 2.828 3.536 3.536
864 67 3 3.536 2.828 3.536
865 67 3 4.243 2.828 2.828
866 67 3 4.950 3.536 2.828
867 67 3 4.243 3.536 3.536
868 67 3 4.950 2.828 3.536
869 67 3 5.657 2.828 2.828
870 67 3 6.364 3.536 2.828
871 67 3 5.657 3.536 3.536
872 67 3 6.364 2.828 3.536
873 67 3 7.071 2.828 2.828
874 67 3 7.778 3.536 2.828
875 67 3 7.071 3.536 3.536
876 67 3 7.778 2.828 3.536
877 67 3 8.485 3.536 3.536
878 67 3 2.121 4.950 2.828
879 67 3 2.121 4.243 3.536
880 67 3 2.828 4.243 2.828
881 67 3 3.536 4.950 2.828
882 67 3 2.828 4.950 3.536
883 67 3 3.536 4.243 3.536
884 67 3 4.243 4.243 2.828
885 67 3 4.950 4.950 2.828
886 67 3 4.243 4.950 3.536
887 67 3 4.950 4.243 3.536
888 67 3 5.657 4.243 2.828
889 67 3 6.364 4.950 2.828
890 67 3 5.657 4.950 3.536
891 67 3 6.364 4.243 3.536
892 67 3 7.071 4.243 2.828
893 67 3 7.778 4.950 2.828
894 67 3 7.071 4.950 3.536
895 67 3 7.778 4.243 3.536
896 67 3 8.485 4.243 2.828
897 67 3 9.192 4.950 2.828
898 67 3 8.485 4.950 3.536
899 67 3 9.192 4.243 3.536
900 67 3 2.121 6.364 2.828
901 67 3 2.121 5.657 3.536
902 67 3 2.828 5.657 2.828
903 67 3 3.536 6.364 2.828
904 67 3 2.828 6.364 3.536
905 67 3 3.536 5.657 3.536
906 67 3 4.243 5.657 2.828
907 67 3 4.950 6.364 2.828
908 67 3 4.243 6.364 3.536
909 67 3 4.950 5.657 3.536
910 67 3 5.657 5.657 2.828
911 67 3 6.364 6.364 2.828
912 67 3 5.657 6.364 3.536
913 67 3 6.364 5.657 3.536
914 67 3 7.071 5.657 2.828
915 67 3 7.778 6.364 2.828
916 67 3 7.071 6.364 3.536
917 67 3 7.778 5.657 3.536
918 67 3 8.485 5.657 2.828
919 67 3 9.192 6.364 2.828
920 67 3 8.485 6.364 3.536
921 67 3 9.192 5.657 3.536
922 67 3 2.121 7.071 3.536
923 67 3 2.828 7.071 2.828
924 67 3 3.536 7.778 2.828
925 67 3 2.828 7.778 3.536
926 67 3 3.536 7.071 3.536
927 67 3 4.243 7.071 2.828
928 67 3 4.950 7.778 2.828
929 67 3 4.243 7.778 3.536
930 67 3 4.950 7.071 3.536
931 67 3 5.657 7.071 2.828
932 67 3 6.364 7.778 2.828
933 67 3 5.657 7.778 3.536
934 67 3 6.364 7.071 3.536
935 67 3 7.071 7.071 2.828
936 67 3 7.778 7.778 2.828
937 67 3 7.071 7.778 3.536
938 67 3 7.778 7.071 3.536
939 67 3 8.485 7.071 2.828
940 67 3 8.485 7.778 3.536
941 67 3 9.192 7.071 3.536
942 67 3 3.536 8.485 3.536
943 67 3 4.243 8.485 2.828
944 67 3 4.950 9.192 2.828
945 67 3 4.243 9.192 3.536
946 67 3 4.950 8.485 3.536
947 67 3 5.657 8.485 2.828
948 67 3 6.364 9.192 2.828
949 67 3 5.657 9.192 3.536
950 67 3 6.364 8.485 3.536
951 67 3 7.071 8.485 2.828
952 67 3 7.071 9.192 3.536
953 67 3 7.778 8.485 3.536
954 67 3 8.485 8.485 2.828
955 67 3 4.950 2.121 4.243
956 67 3 4.243 2.121 4.950
957 67 3 6.364 2.121 4.243
958 67 3 5.657 2.121 4.950
959 67 3 7.071 2.121 4.950
960 67 3 3.536 3.536 4.243
961 67 3 2.828 3.536 4.950
962 67 3 3.536 2.828 4.950
963 67 3 4.243 2.828 4.243
964 67 3 4.950 3.536 4.243
965 67 3 4.243 3.536 4.950
966 67 3 4.950 2.828 4.950
967 67 3 5.657 2.828 4.243
968 67 3 6.364 3.536 4.243
969 67 3 5.657 3.536 4.950
970 67 3 6.364 2.828 4.950
971 67 3 7.071 2.828 4.243
972 67 3 7.778 3.536 4.243
973 67 3 7.071 3.536 4.950
974 67 3 7.778 2.828 4.950
975 67 3 8.485 3.536 4.950
976 67 3 2.121 4.950 4.243
977 67 3 2.121 4.243 4.950
978 67 3 2.828 4.243 4.243
979 67 3 3.536 4.950 4.243
980 67 3 2.828 4.950 4.950
981 67 3 3.536 4.243 4.950
982 67 3 4.243 4.243 4.243
983 67 3 4.950 4.950 4.243
984 67 3 4.243 4.950 4.950
985 67 3 4.950 4.243 4.950
986 67 3 5.657 4.243 4.243
987 67 3 6.364 4.950 4.243
988 67 3 5.657 4.950 4.950
989 67 3 6.364 4.243 4.950
990 67 3 7.071 4.243 4.243
991 67 3 7.778 4.950 4.243
992 67 3 7.071 4.950 4.950
993 67 3 7.778 4.243 4.950
994 67 3 8.485 4.243 4.243
995 67 3 9.192 4.950 4.243
996 67 3 8.485 4.950 4.950
997 67 3 9.192 4.243 4.950
998 67 3 2.121 6.364 4.243
999 67 3 2.121 5.657 4.950
1000 67 3 2.828 5.657 4.243
1001 67 3 3.536 6.364 4.243
1002 67 3 2.828 6.364 4.950
1003 67 3 3.536 5.657 4.950
1004 67 3 4.243 5.657 4.243
1005 67 3 4.950 6.364 4.243
1006 67 3 4.243 6.364 4.950
1007 67 3 4.950 5.657 4.950
1008 67 3 5.657 5.657 4.243
1009 67 3 6.364 6.364 4.243
1010 67 3 5.657 6.364 4.950
1011 67 3 6.364 5.657 4.950
1012 67 3 7.071 5.657 4.243
1013 67 3 7.778 6.364 4.243
1014 67 3 7.071 6.364 4.950
1015 67 3 7.778 5.657 4.950
1016 67 3 8.485 5.657 4.243
1017 67 3 9.192 6.364 4.243
1018 67 3 8.485 6.364 4.950
1019 67 3 9.192 5.657 4.950
1020 67 3 2.121 7.071 4.950
1021 67 3 2.828 7.071 4.243
1022 67 3 3.536 7.778 4.243
1023 67 3 2.828 7.778 4.950
1024 67 3 3.536 7.071 4.950
1025 67 3 4.243 7.071 4.243
1026 67 3 4.950 7.778 4.243
1027 67 3 4.243 7.778 4.950
1028 67 3 4.950 7.071 4.950
1029 67 3 5.657 7.071 4.243
1030 67 3 6.364 7.778 4.243
1031 67 3 5.657 7.778 4.950
1032 67 3 6.364 7.071 4.950
1033 67 3 7.071 7.071 4.243
1034 67 3 7.778 7.778 4.243
1035 67 3 7.071 7.778 4.950
1036 67 3 7.778 7.071 4.950
1037 67 3 8.485 7.071 4.243
1038 67 3 8.485 7.778 4.950
1039 67 3 9.192 7.071 4.950
1040 67 3 3.536 8.485 4.950
1041 67 3 4.243 8.485 4.243
1042 67 3 4.950 9.192 4.243
1043 67 3 4.243 9.192 4.950
1044 67 3 4.950 8.485 4.950
1045 67 3 5.657 8.485 4.243
1046 67 3 6.364 9.192 4.243
1047 67 3 5.657 9.192 4.950
1048 67 3 6.364 8.485 4.950
1049 67 3 7.071 8.485 4.243
1050 67 3 7.071 9.192 4.950
1051 67 3 7.778 8.485 4.950
1052 67 3 8.485 8.485 4.243
1053 67 3 4.950 2.121 5.657
1054 67 3 4.243 2.121 6.364
1055 67 3 6.364 2.121 5.657
1056 67 3 5.657 2.121 6.364
1057 67 3 7.071 2.121 6.364
1058 67 3 3.536 3.536 5.657
1059 67 3 2.828 3.536 6.364
1060 67 3 3.536 2.828 6.364
1061 67 3 4.243 2.828 5.657
1062 67 3 4.950 3.536 5.657
1063 67 3 4.243 3.536 6.364
1064 67 3 4.950 2.828 6.364
1065 67 3 5.657 2.828 5.657
1066 67 3 6.364 3.536 5.657
1067 67 3 5.657 3.536 6.364
1068 67 3 6.364 2.828 6.364
1069 67 3 7.071 2.828 5.657
1070 67 3 7.778 3.536 5.657
1071 67 3 7.071 3.536 6.364