 # Fcc Au oriented X=[100] Y=[010] Z=[001].
  
         980  atoms
           1  atom types
 
      0.000000000000      11.313708500000  xlo xhi
      0.000000000000      11.313708500000  ylo yhi
      0.000000000000      14.142135620000  zlo zhi
 
Masses
 
            1   196.96656900            # Au
 
Atoms # atomic
 
         1    1        4.949747470000       2.121320340000       0.000000000000
         2    1        4.242640690000       2.121320340000       0.707106780000
         3    1        6.363961030000       2.121320340000       0.000000000000
         4    1        5.656854250000       2.121320340000       0.707106780000
         5    1        7.071067810000       2.121320340000       0.707106780000
         6    1        3.535533910000       3.535533910000       0.000000000000
         7    1        2.828427120000       3.535533910000       0.707106780000
         8    1        3.535533910000       2.828427120000       0.707106780000
         9    1        4.242640690000       2.828427120000       0.000000000000
        10    1        4.949747470000       3.535533910000       0.000000000000
        11    1        4.242640690000       3.535533910000       0.707106780000
        12    1        4.949747470000       2.828427120000       0.707106780000
        13    1        5.656854250000       2.828427120000       0.000000000000
        14    1        6.363961030000       3.535533910000       0.000000000000
        15    1        5.656854250000       3.535533910000       0.707106780000
        16    1        6.363961030000       2.828427120000       0.707106780000
        17    1        7.071067810000       2.828427120000       0.000000000000
        18    1        7.778174590000       3.535533910000       0.000000000000
        19    1        7.071067810000       3.535533910000       0.707106780000
        20    1        7.778174590000       2.828427120000       0.707106780000
        21    1        8.485281370000       3.535533910000       0.707106780000
        22    1        2.121320340000       4.949747470000       0.000000000000
        23    1        2.121320340000       4.242640690000       0.707106780000
        24    1        2.828427120000       4.242640690000       0.000000000000
        25    1        3.535533910000       4.949747470000       0.000000000000
        26    1        2.828427120000       4.949747470000       0.707106780000
        27    1        3.535533910000       4.242640690000       0.707106780000
        28    1        4.242640690000       4.242640690000       0.000000000000
        29    1        4.949747470000       4.949747470000       0.000000000000
        30    1        4.242640690000       4.949747470000       0.707106780000
        31    1        4.949747470000       4.242640690000       0.707106780000
        32    1        5.656854250000       4.242640690000       0.000000000000
        33    1        6.363961030000       4.949747470000       0.000000000000
        34    1        5.656854250000       4.949747470000       0.707106780000
        35    1        6.363961030000       4.242640690000       0.707106780000
        36    1        7.071067810000       4.242640690000       0.000000000000
        37    1        7.778174590000       4.949747470000       0.000000000000
        38    1        7.071067810000       4.949747470000       0.707106780000
        39    1        7.778174590000       4.242640690000       0.707106780000
        40    1        8.485281370000       4.242640690000       0.000000000000
        41    1        9.192388160000       4.949747470000       0.000000000000
        42    1        8.485281370000       4.949747470000       0.707106780000
        43    1        9.192388160000       4.242640690000       0.707106780000
        44    1        2.121320340000       6.363961030000       0.000000000000
        45    1        2.121320340000       5.656854250000       0.707106780000
        46    1        2.828427120000       5.656854250000       0.000000000000
        47    1        3.535533910000       6.363961030000       0.000000000000
        48    1        2.828427120000       6.363961030000       0.707106780000
        49    1        3.535533910000       5.656854250000       0.707106780000
        50    1        4.242640690000       5.656854250000       0.000000000000
        51    1        4.949747470000       6.363961030000       0.000000000000
        52    1        4.242640690000       6.363961030000       0.707106780000
        53    1        4.949747470000       5.656854250000       0.707106780000
        54    1        5.656854250000       5.656854250000       0.000000000000
        55    1        6.363961030000       6.363961030000       0.000000000000
        56    1        5.656854250000       6.363961030000       0.707106780000
        57    1        6.363961030000       5.656854250000       0.707106780000
        58    1        7.071067810000       5.656854250000       0.000000000000
        59    1        7.778174590000       6.363961030000       0.000000000000
        60    1        7.071067810000       6.363961030000       0.707106780000
        61    1        7.778174590000       5.656854250000       0.707106780000
        62    1        8.485281370000       5.656854250000       0.000000000000
        63    1        9.192388160000       6.363961030000       0.000000000000
        64    1        8.485281370000       6.363961030000       0.707106780000
        65    1        9.192388160000       5.656854250000       0.707106780000
        66    1        2.121320340000       7.071067810000       0.707106780000
        67    1        2.828427120000       7.071067810000       0.000000000000
        68    1        3.535533910000       7.778174590000       0.000000000000
        69    1        2.828427120000       7.778174590000       0.707106780000
        70    1        3.535533910000       7.071067810000       0.707106780000
        71    1        4.242640690000       7.071067810000       0.000000000000
        72    1        4.949747470000       7.778174590000       0.000000000000
        73    1        4.242640690000       7.778174590000       0.707106780000
        74    1        4.949747470000       7.071067810000       0.707106780000
        75    1        5.656854250000       7.071067810000       0.000000000000
        76    1        6.363961030000       7.778174590000       0.000000000000
        77    1        5.656854250000       7.778174590000       0.707106780000
        78    1        6.363961030000       7.071067810000       0.707106780000
        79    1        7.071067810000       7.071067810000       0.000000000000
        80    1        7.778174590000       7.778174590000       0.000000000000
        81    1        7.071067810000       7.778174590000       0.707106780000
        82    1        7.778174590000       7.071067810000       0.707106780000
        83    1        8.485281370000       7.071067810000       0.000000000000
        84    1        8.485281370000       7.778174590000       0.707106780000
        85    1        9.192388160000       7.071067810000       0.707106780000
        86    1        3.535533910000       8.485281370000       0.707106780000
        87    1        4.242640690000       8.485281370000       0.000000000000
        88    1        4.949747470000       9.192388160000       0.000000000000
        89    1        4.242640690000       9.192388160000       0.707106780000
        90    1        4.949747470000       8.485281370000       0.707106780000
        91    1        5.656854250000       8.485281370000       0.000000000000
        92    1        6.363961030000       9.192388160000       0.000000000000
        93    1        5.656854250000       9.192388160000       0.707106780000
        94    1        6.363961030000       8.485281370000       0.707106780000
        95    1        7.071067810000       8.485281370000       0.000000000000
        96    1        7.071067810000       9.192388160000       0.707106780000
        97    1        7.778174590000       8.485281370000       0.707106780000
        98    1        8.485281370000       8.485281370000       0.000000000000
        99    1        4.949747470000       2.121320340000       1.414213560000
       100    1        4.242640690000       2.121320340000       2.121320340000
       101    1        6.363961030000       2.121320340000       1.414213560000
       102    1        5.656854250000       2.121320340000       2.121320340000
       103    1        7.071067810000       2.121320340000       2.121320340000
       104    1        3.535533910000       3.535533910000       1.414213560000
       105    1        2.828427120000       3.535533910000       2.121320340000
       106    1        3.535533910000       2.828427120000       2.121320340000
       107    1        4.242640690000       2.828427120000       1.414213560000
       108    1        4.949747470000       3.535533910000       1.414213560000
       109    1        4.242640690000       3.535533910000       2.121320340000
       110    1        4.949747470000       2.828427120000       2.121320340000
       111    1        5.656854250000       2.828427120000       1.414213560000
       112    1        6.363961030000       3.535533910000       1.414213560000
       113    1        5.656854250000       3.535533910000       2.121320340000
       114    1        6.363961030000       2.828427120000       2.121320340000
       115    1        7.071067810000       2.828427120000       1.414213560000
       116    1        7.778174590000       3.535533910000       1.414213560000
       117    1        7.071067810000       3.535533910000       2.121320340000
       118    1        7.778174590000       2.828427120000       2.121320340000
       119    1        8.485281370000       3.535533910000       2.121320340000
       120    1        2.121320340000       4.949747470000       1.414213560000
       121    1        2.121320340000       4.242640690000       2.121320340000
       122    1        2.828427120000       4.242640690000       1.414213560000
       123    1        3.535533910000       4.949747470000       1.414213560000
       124    1        2.828427120000       4.949747470000       2.121320340000
       125    1        3.535533910000       4.242640690000       2.121320340000
       126    1        4.242640690000       4.242640690000       1.414213560000
       127    1        4.949747470000       4.949747470000       1.414213560000
       128    1        4.242640690000       4.949747470000       2.121320340000
       129    1        4.949747470000       4.242640690000       2.121320340000
       130    1        5.656854250000       4.242640690000       1.414213560000
       131    1        6.363961030000       4.949747470000       1.414213560000
       132    1        5.656854250000       4.949747470000       2.121320340000
       133    1        6.363961030000       4.242640690000       2.121320340000
       134    1        7.071067810000       4.242640690000       1.414213560000
       135    1        7.778174590000       4.949747470000       1.414213560000
       136    1        7.071067810000       4.949747470000       2.121320340000
       137    1        7.778174590000       4.242640690000       2.121320340000
       138    1        8.485281370000       4.242640690000       1.414213560000
       139    1        9.192388160000       4.949747470000       1.414213560000
       140    1        8.485281370000       4.949747470000       2.121320340000
       141    1        9.192388160000       4.242640690000       2.121320340000
       142    1        2.121320340000       6.363961030000       1.414213560000
       143    1        2.121320340000       5.656854250000       2.121320340000
       144    1        2.828427120000       5.656854250000       1.414213560000
       145    1        3.535533910000       6.363961030000       1.414213560000
       146    1        2.828427120000       6.363961030000       2.121320340000
       147    1        3.535533910000       5.656854250000       2.121320340000
       148    1        4.242640690000       5.656854250000       1.414213560000
       149    1        4.949747470000       6.363961030000       1.414213560000
       150    1        4.242640690000       6.363961030000       2.121320340000
       151    1        4.949747470000       5.656854250000       2.121320340000
       152    1        5.656854250000       5.656854250000       1.414213560000
       153    1        6.363961030000       6.363961030000       1.414213560000
       154    1        5.656854250000       6.363961030000       2.121320340000
       155    1        6.363961030000       5.656854250000       2.121320340000
       156    1        7.071067810000       5.656854250000       1.414213560000
       157    1        7.778174590000       6.363961030000       1.414213560000
       158    1        7.071067810000       6.363961030000       2.121320340000
       159    1        7.778174590000       5.656854250000       2.121320340000
       160    1        8.485281370000       5.656854250000       1.414213560000
       161    1        9.192388160000       6.363961030000       1.414213560000
       162    1        8.485281370000       6.363961030000       2.121320340000
       163    1        9.192388160000       5.656854250000       2.121320340000
       164    1        2.121320340000       7.071067810000       2.121320340000
       165    1        2.828427120000       7.071067810000       1.414213560000
       166    1        3.535533910000       7.778174590000       1.414213560000
       167    1        2.828427120000       7.778174590000       2.121320340000
       168    1        3.535533910000       7.071067810000       2.121320340000
       169    1        4.242640690000       7.071067810000       1.414213560000
       170    1        4.949747470000       7.778174590000       1.414213560000
       171    1        4.242640690000       7.778174590000       2.121320340000
       172    1        4.949747470000       7.071067810000       2.121320340000
       173    1        5.656854250000       7.071067810000       1.414213560000
       174    1        6.363961030000       7.778174590000       1.414213560000
       175    1        5.656854250000       7.778174590000       2.121320340000
       176    1        6.363961030000       7.071067810000       2.121320340000
       177    1        7.071067810000       7.071067810000       1.414213560000
       178    1        7.778174590000       7.778174590000       1.414213560000
       179    1        7.071067810000       7.778174590000       2.121320340000
       180    1        7.778174590000       7.071067810000       2.121320340000
       181    1        8.485281370000       7.071067810000       1.414213560000
       182    1        8.485281370000       7.778174590000       2.121320340000
       183    1        9.192388160000       7.071067810000       2.121320340000
       184    1        3.535533910000       8.485281370000       2.121320340000
       185    1        4.242640690000       8.485281370000       1.414213560000
       186    1        4.949747470000       9.192388160000       1.414213560000
       187    1        4.242640690000       9.192388160000       2.121320340000
       188    1        4.949747470000       8.485281370000       2.121320340000
       189    1        5.656854250000       8.485281370000       1.414213560000
       190    1        6.363961030000       9.192388160000       1.414213560000
       191    1        5.656854250000       9.192388160000       2.121320340000
       192    1        6.363961030000       8.485281370000       2.121320340000
       193    1        7.071067810000       8.485281370000       1.414213560000
       194    1        7.071067810000       9.192388160000       2.121320340000
       195    1        7.778174590000       8.485281370000       2.121320340000
       196    1        8.485281370000       8.485281370000       1.414213560000
       197    1        4.949747470000       2.121320340000       2.828427120000
       198    1        4.242640690000       2.121320340000       3.535533910000
       199    1        6.363961030000       2.121320340000       2.828427120000
       200    1        5.656854250000       2.121320340000       3.535533910000
       201    1        7.071067810000       2.121320340000       3.535533910000
       202    1        3.535533910000       3.535533910000       2.828427120000
       203    1        2.828427120000       3.535533910000       3.535533910000
       204    1        3.535533910000       2.828427120000       3.535533910000
       205    1        4.242640690000       2.828427120000       2.828427120000
       206    1        4.949747470000       3.535533910000       2.828427120000
       207    1        4.242640690000       3.535533910000       3.535533910000
       208    1        4.949747470000       2.828427120000       3.535533910000
       209    1        5.656854250000       2.828427120000       2.828427120000
       210    1        6.363961030000       3.535533910000       2.828427120000
       211    1        5.656854250000       3.535533910000       3.535533910000
       212    1        6.363961030000       2.828427120000       3.535533910000
       213    1        7.071067810000       2.828427120000       2.828427120000
       214    1        7.778174590000       3.535533910000       2.828427120000
       215    1        7.071067810000       3.535533910000       3.535533910000
       216    1        7.778174590000       2.828427120000       3.535533910000
       217    1        8.485281370000       3.535533910000       3.535533910000
       218    1        2.121320340000       4.949747470000       2.828427120000
       219    1        2.121320340000       4.242640690000       3.535533910000
       220    1        2.828427120000       4.242640690000       2.828427120000
       221    1        3.535533910000       4.949747470000       2.828427120000
       222    1        2.828427120000       4.949747470000       3.535533910000
       223    1        3.535533910000       4.242640690000       3.535533910000
       224    1        4.242640690000       4.242640690000       2.828427120000
       225    1        4.949747470000       4.949747470000       2.828427120000
       226    1        4.242640690000       4.949747470000       3.535533910000
       227    1        4.949747470000       4.242640690000       3.535533910000
       228    1        5.656854250000       4.242640690000       2.828427120000
       229    1        6.363961030000       4.949747470000       2.828427120000
       230    1        5.656854250000       4.949747470000       3.535533910000
       231    1        6.363961030000       4.242640690000       3.535533910000
       232    1        7.071067810000       4.242640690000       2.828427120000
       233    1        7.778174590000       4.949747470000       2.828427120000
       234    1        7.071067810000       4.949747470000       3.535533910000
       235    1        7.778174590000       4.242640690000       3.535533910000
       236    1        8.485281370000       4.242640690000       2.828427120000
       237    1        9.192388160000       4.949747470000       2.828427120000
       238    1        8.485281370000       4.949747470000       3.535533910000
       239    1        9.192388160000       4.242640690000       3.535533910000
       240    1        2.121320340000       6.363961030000       2.828427120000
       241    1        2.121320340000       5.656854250000       3.535533910000
       242    1        2.828427120000       5.656854250000       2.828427120000
       243    1        3.535533910000       6.363961030000       2.828427120000
       244    1        2.828427120000       6.363961030000       3.535533910000
       245    1        3.535533910000       5.656854250000       3.535533910000
       246    1        4.242640690000       5.656854250000       2.828427120000
       247    1        4.949747470000       6.363961030000       2.828427120000
       248    1        4.242640690000       6.363961030000       3.535533910000
       249    1        4.949747470000       5.656854250000       3.535533910000
       250    1        5.656854250000       5.656854250000       2.828427120000
       251    1        6.363961030000       6.363961030000       2.828427120000
       252    1        5.656854250000       6.363961030000       3.535533910000
       253    1        6.363961030000       5.656854250000       3.535533910000
       254    1        7.071067810000       5.656854250000       2.828427120000
       255    1        7.778174590000       6.363961030000       2.828427120000
       256    1        7.071067810000       6.363961030000       3.535533910000
       257    1        7.778174590000       5.656854250000       3.535533910000
       258    1        8.485281370000       5.656854250000       2.828427120000
       259    1        9.192388160000       6.363961030000       2.828427120000
       260    1        8.485281370000       6.363961030000       3.535533910000
       261    1        9.192388160000       5.656854250000       3.535533910000
       262    1        2.121320340000       7.071067810000       3.535533910000
       263    1        2.828427120000       7.071067810000       2.828427120000
       264    1        3.535533910000       7.778174590000       2.828427120000
       265    1        2.828427120000       7.778174590000       3.535533910000
       266    1        3.535533910000       7.071067810000       3.535533910000
       267    1        4.242640690000       7.071067810000       2.828427120000
       268    1        4.949747470000       7.778174590000       2.828427120000
       269    1        4.242640690000       7.778174590000       3.535533910000
       270    1        4.949747470000       7.071067810000       3.535533910000
       271    1        5.656854250000       7.071067810000       2.828427120000
       272    1        6.363961030000       7.778174590000       2.828427120000
       273    1        5.656854250000       7.778174590000       3.535533910000
       274    1        6.363961030000       7.071067810000       3.535533910000
       275    1        7.071067810000       7.071067810000       2.828427120000
       276    1        7.778174590000       7.778174590000       2.828427120000
       277    1        7.071067810000       7.778174590000       3.535533910000
       278    1        7.778174590000       7.071067810000       3.535533910000
       279    1        8.485281370000       7.071067810000       2.828427120000
       280    1        8.485281370000       7.778174590000       3.535533910000
       281    1        9.192388160000       7.071067810000       3.535533910000
       282    1        3.535533910000       8.485281370000       3.535533910000
       283    1        4.242640690000       8.485281370000       2.828427120000
       284    1        4.949747470000       9.192388160000       2.828427120000
       285    1        4.242640690000       9.192388160000       3.535533910000
       286    1        4.949747470000       8.485281370000       3.535533910000
       287    1        5.656854250000       8.485281370000       2.828427120000
       288    1        6.363961030000       9.192388160000       2.828427120000
       289    1        5.656854250000       9.192388160000       3.535533910000
       290    1        6.363961030000       8.485281370000       3.535533910000
       291    1        7.071067810000       8.485281370000       2.828427120000
       292    1        7.071067810000       9.192388160000       3.535533910000
       293    1        7.778174590000       8.485281370000       3.535533910000
       294    1        8.485281370000       8.485281370000       2.828427120000
       295    1        4.949747470000       2.121320340000       4.242640690000
       296    1        4.242640690000       2.121320340000       4.949747470000
       297    1        6.363961030000       2.121320340000       4.242640690000
       298    1        5.656854250000       2.121320340000       4.949747470000
       299    1        7.071067810000       2.121320340000       4.949747470000
       300    1        3.535533910000       3.535533910000       4.242640690000
       301    1        2.828427120000       3.535533910000       4.949747470000
       302    1        3.535533910000       2.828427120000       4.949747470000
       303    1        4.242640690000       2.828427120000       4.242640690000
       304    1        4.949747470000       3.535533910000       4.242640690000
       305    1        4.242640690000       3.535533910000       4.949747470000
       306    1        4.949747470000       2.828427120000       4.949747470000
       307    1        5.656854250000       2.828427120000       4.242640690000
       308    1        6.363961030000       3.535533910000       4.242640690000
       309    1        5.656854250000       3.535533910000       4.949747470000
       310    1        6.363961030000       2.828427120000       4.949747470000
       311    1        7.071067810000       2.828427120000       4.242640690000
       312    1        7.778174590000       3.535533910000       4.242640690000
       313    1        7.071067810000       3.535533910000       4.949747470000
       314    1        7.778174590000       2.828427120000       4.949747470000
       315    1        8.485281370000       3.535533910000       4.949747470000
       316    1        2.121320340000       4.949747470000       4.242640690000
       317    1        2.121320340000       4.242640690000       4.949747470000
       318    1        2.828427120000       4.242640690000       4.242640690000
       319    1        3.535533910000       4.949747470000       4.242640690000
       320    1        2.828427120000       4.949747470000       4.949747470000
       321    1        3.535533910000       4.242640690000       4.949747470000
       322    1        4.242640690000       4.242640690000       4.242640690000
       323    1        4.949747470000       4.949747470000       4.242640690000
       324    1        4.242640690000       4.949747470000       4.949747470000
       325    1        4.949747470000       4.242640690000       4.949747470000
       326    1        5.656854250000       4.242640690000       4.242640690000
       327    1        6.363961030000       4.949747470000       4.242640690000
       328    1        5.656854250000       4.949747470000       4.949747470000
       329    1        6.363961030000       4.242640690000       4.949747470000
       330    1        7.071067810000       4.242640690000       4.242640690000
       331    1        7.778174590000       4.949747470000       4.242640690000
       332    1        7.071067810000       4.949747470000       4.949747470000
       333    1        7.778174590000       4.242640690000       4.949747470000
       334    1        8.485281370000       4.242640690000       4.242640690000
       335    1        9.192388160000       4.949747470000       4.242640690000
       336    1        8.485281370000       4.949747470000       4.949747470000
       337    1        9.192388160000       4.242640690000       4.949747470000
       338    1        2.121320340000       6.363961030000       4.242640690000
       339    1        2.121320340000       5.656854250000       4.949747470000
       340    1        2.828427120000       5.656854250000       4.242640690000
       341    1        3.535533910000       6.363961030000       4.242640690000
       342    1        2.828427120000       6.363961030000       4.949747470000
       343    1        3.535533910000       5.656854250000       4.949747470000
       344    1        4.242640690000       5.656854250000       4.242640690000
       345    1        4.949747470000       6.363961030000       4.242640690000
       346    1        4.242640690000       6.363961030000       4.949747470000
       347    1        4.949747470000       5.656854250000       4.949747470000
       348    1        5.656854250000       5.656854250000       4.242640690000
       349    1        6.363961030000       6.363961030000       4.242640690000
       350    1        5.656854250000       6.363961030000       4.949747470000
       351    1        6.363961030000       5.656854250000       4.949747470000
       352    1        7.071067810000       5.656854250000       4.242640690000
       353    1        7.778174590000       6.363961030000       4.242640690000
       354    1        7.071067810000       6.363961030000       4.949747470000
       355    1        7.778174590000       5.656854250000       4.949747470000
       356    1        8.485281370000       5.656854250000       4.242640690000
       357    1        9.192388160000       6.363961030000       4.242640690000
       358    1        8.485281370000       6.363961030000       4.949747470000
       359    1        9.192388160000       5.656854250000       4.949747470000
       360    1        2.121320340000       7.071067810000       4.949747470000
       361    1        2.828427120000       7.071067810000       4.242640690000
       362    1        3.535533910000       7.778174590000       4.242640690000
       363    1        2.828427120000       7.778174590000       4.949747470000
       364    1        3.535533910000       7.071067810000       4.949747470000
       365    1        4.242640690000       7.071067810000       4.242640690000
       366    1        4.949747470000       7.778174590000       4.242640690000
       367    1        4.242640690000       7.778174590000       4.949747470000
       368    1        4.949747470000       7.071067810000       4.949747470000
       369    1        5.656854250000       7.071067810000       4.242640690000
       370    1        6.363961030000       7.778174590000       4.242640690000