lammps data file written by polyGraft 

1148 atoms
5124 bonds
0 angles
0 dihedrals
0 impropers

2 atom types
3 bond types
0 angle types
0 dihedral types
0 improper types

-5.009 16.842 xlo xhi
-5.371 16.679 ylo yhi
0.000 13.435 zlo zhi

Atoms

1 1 1 11.842 5.635 0.707
2 1 1 12.842 5.627 0.707
3 1 1 13.842 5.619 0.707
4 1 1 14.842 5.610 0.707
5 1 1 15.842 5.602 0.707
6 1 1 16.842 5.594 0.707
7 2 1 11.842 5.635 3.536
8 2 1 12.842 5.627 3.536
9 2 1 13.842 5.619 3.536
10 2 1 14.842 5.610 3.536
11 2 1 15.842 5.602 3.536
12 2 1 16.842 5.594 3.536
13 3 1 11.842 5.635 7.778
14 3 1 12.842 5.627 7.778
15 3 1 13.842 5.619 7.778
16 3 1 14.842 5.610 7.778
17 3 1 15.842 5.602 7.778
18 3 1 16.842 5.594 7.778
19 4 1 11.842 5.635 10.607
20 4 1 12.842 5.627 10.607
21 4 1 13.842 5.619 10.607
22 4 1 14.842 5.610 10.607
23 4 1 15.842 5.602 10.607
24 4 1 16.842 5.594 10.607
25 5 1 9.365 10.608 0.707
26 5 1 9.963 11.409 0.707
27 5 1 10.562 12.210 0.707
28 5 1 11.161 13.011 0.707
29 5 1 11.759 13.812 0.707
30 5 1 12.358 14.613 0.707
31 6 1 10.359 10.359 4.243
32 6 1 11.066 11.066 4.243
33 6 1 11.773 11.773 4.243
34 6 1 12.480 12.480 4.243
35 6 1 13.188 13.188 4.243
36 6 1 13.895 13.895 4.243
37 7 1 10.359 10.359 7.071
38 7 1 11.066 11.066 7.071
39 7 1 11.773 11.773 7.071
40 7 1 12.480 12.480 7.071
41 7 1 13.188 13.188 7.071
42 7 1 13.895 13.895 7.071
43 8 1 9.365 10.608 10.607
44 8 1 9.963 11.409 10.607
45 8 1 10.562 12.210 10.607
46 8 1 11.161 13.011 10.607
47 8 1 11.759 13.812 10.607
48 8 1 12.358 14.613 10.607
49 9 1 3.234 11.643 0.707
50 9 1 2.854 12.568 0.707
51 9 1 2.473 13.493 0.707
52 9 1 2.092 14.417 0.707
53 9 1 1.712 15.342 0.707
54 9 1 1.331 16.267 0.707
55 10 1 4.405 11.786 4.243
56 10 1 4.200 12.765 4.243
57 10 1 3.995 13.743 4.243
58 10 1 3.789 14.722 4.243
59 10 1 3.584 15.701 4.243
60 10 1 3.378 16.679 4.243
61 11 1 4.405 11.786 7.071
62 11 1 4.200 12.765 7.071
63 11 1 3.995 13.743 7.071
64 11 1 3.789 14.722 7.071
65 11 1 3.584 15.701 7.071
66 11 1 3.378 16.679 7.071
67 12 1 4.405 11.786 9.899
68 12 1 4.200 12.765 9.899
69 12 1 3.995 13.743 9.899
70 12 1 3.789 14.722 9.899
71 12 1 3.584 15.701 9.899
72 12 1 3.378 16.679 9.899
73 13 1 -0.349 8.031 0.707
74 13 1 -1.281 8.393 0.707
75 13 1 -2.213 8.756 0.707
76 13 1 -3.145 9.118 0.707
77 13 1 -4.077 9.480 0.707
78 13 1 -5.009 9.842 0.707
79 14 1 -0.349 8.031 3.536
80 14 1 -1.281 8.393 3.536
81 14 1 -2.213 8.756 3.536
82 14 1 -3.145 9.118 3.536
83 14 1 -4.077 9.480 3.536
84 14 1 -5.009 9.842 3.536
85 15 1 -0.349 8.031 7.778
86 15 1 -1.281 8.393 7.778
87 15 1 -2.213 8.756 7.778
88 15 1 -3.145 9.118 7.778
89 15 1 -4.077 9.480 7.778
90 15 1 -5.009 9.842 7.778
91 16 1 -0.349 8.031 10.607
92 16 1 -1.281 8.393 10.607
93 16 1 -2.213 8.756 10.607
94 16 1 -3.145 9.118 10.607
95 16 1 -4.077 9.480 10.607
96 16 1 -5.009 9.842 10.607
97 17 1 -0.335 3.248 0.707
98 17 1 -1.262 2.873 0.707
99 17 1 -2.189 2.498 0.707
100 17 1 -3.116 2.122 0.707
101 17 1 -4.043 1.747 0.707
102 17 1 -4.970 1.372 0.707
103 18 1 -0.335 3.248 3.536
104 18 1 -1.262 2.873 3.536
105 18 1 -2.189 2.498 3.536
106 18 1 -3.116 2.122 3.536
107 18 1 -4.043 1.747 3.536
108 18 1 -4.970 1.372 3.536
109 19 1 -0.335 3.248 7.778
110 19 1 -1.262 2.873 7.778
111 19 1 -2.189 2.498 7.778
112 19 1 -3.116 2.122 7.778
113 19 1 -4.043 1.747 7.778
114 19 1 -4.970 1.372 7.778
115 20 1 -0.335 3.248 10.607
116 20 1 -1.262 2.873 10.607
117 20 1 -2.189 2.498 10.607
118 20 1 -3.116 2.122 10.607
119 20 1 -4.043 1.747 10.607
120 20 1 -4.970 1.372 10.607
121 21 1 3.248 -0.335 0.707
122 21 1 2.873 -1.262 0.707
123 21 1 2.498 -2.189 0.707
124 21 1 2.122 -3.116 0.707
125 21 1 1.747 -4.043 0.707
126 21 1 1.372 -4.970 0.707
127 22 1 4.414 -0.474 4.243
128 22 1 4.212 -1.453 4.243
129 22 1 4.009 -2.433 4.243
130 22 1 3.807 -3.412 4.243
131 22 1 3.605 -4.391 4.243
132 22 1 3.403 -5.371 4.243
133 23 1 4.414 -0.474 7.071
134 23 1 4.212 -1.453 7.071
135 23 1 4.009 -2.433 7.071
136 23 1 3.807 -3.412 7.071
137 23 1 3.605 -4.391 7.071
138 23 1 3.403 -5.371 7.071
139 24 1 4.414 -0.474 9.899
140 24 1 4.212 -1.453 9.899
141 24 1 4.009 -2.433 9.899
142 24 1 3.807 -3.412 9.899
143 24 1 3.605 -4.391 9.899
144 24 1 3.403 -5.371 9.899
145 25 1 9.344 0.690 0.707
146 25 1 9.935 -0.116 0.707
147 25 1 10.526 -0.923 0.707
148 25 1 11.116 -1.730 0.707
149 25 1 11.707 -2.537 0.707
150 25 1 12.298 -3.344 0.707
151 26 1 9.344 0.690 3.536
152 26 1 9.935 -0.116 3.536
153 26 1 10.526 -0.923 3.536
154 26 1 11.116 -1.730 3.536
155 26 1 11.707 -2.537 3.536
156 26 1 12.298 -3.344 3.536
157 27 1 9.344 0.690 7.778
158 27 1 9.935 -0.116 7.778
159 27 1 10.526 -0.923 7.778
160 27 1 11.116 -1.730 7.778
161 27 1 11.707 -2.537 7.778
162 27 1 12.298 -3.344 7.778
163 28 1 9.344 0.690 10.607
164 28 1 9.935 -0.116 10.607
165 28 1 10.526 -0.923 10.607
166 28 1 11.116 -1.730 10.607
167 28 1 11.707 -2.537 10.607
168 28 1 12.298 -3.344 10.607
169 29 2 4.950 2.121 0.000
170 29 2 4.243 2.121 0.707
171 29 2 6.364 2.121 0.000
172 29 2 5.657 2.121 0.707
173 29 2 7.071 2.121 0.707
174 29 2 3.536 3.536 0.000
175 29 2 2.828 3.536 0.707
176 29 2 3.536 2.828 0.707
177 29 2 4.243 2.828 0.000
178 29 2 4.950 3.536 0.000
179 29 2 4.243 3.536 0.707
180 29 2 4.950 2.828 0.707
181 29 2 5.657 2.828 0.000
182 29 2 6.364 3.536 0.000
183 29 2 5.657 3.536 0.707
184 29 2 6.364 2.828 0.707
185 29 2 7.071 2.828 0.000
186 29 2 7.778 3.536 0.000
187 29 2 7.071 3.536 0.707
188 29 2 7.778 2.828 0.707
189 29 2 8.485 3.536 0.707
190 29 2 2.121 4.950 0.000
191 29 2 2.121 4.243 0.707
192 29 2 2.828 4.243 0.000
193 29 2 3.536 4.950 0.000
194 29 2 2.828 4.950 0.707
195 29 2 3.536 4.243 0.707
196 29 2 4.243 4.243 0.000
197 29 2 4.950 4.950 0.000
198 29 2 4.243 4.950 0.707
199 29 2 4.950 4.243 0.707
200 29 2 5.657 4.243 0.000
201 29 2 6.364 4.950 0.000
202 29 2 5.657 4.950 0.707
203 29 2 6.364 4.243 0.707
204 29 2 7.071 4.243 0.000
205 29 2 7.778 4.950 0.000
206 29 2 7.071 4.950 0.707
207 29 2 7.778 4.243 0.707
208 29 2 8.485 4.243 0.000
209 29 2 9.192 4.950 0.000
210 29 2 8.485 4.950 0.707
211 29 2 9.192 4.243 0.707
212 29 2 2.121 6.364 0.000
213 29 2 2.121 5.657 0.707
214 29 2 2.828 5.657 0.000
215 29 2 3.536 6.364 0.000
216 29 2 2.828 6.364 0.707
217 29 2 3.536 5.657 0.707
218 29 2 4.243 5.657 0.000
219 29 2 4.950 6.364 0.000
220 29 2 4.243 6.364 0.707
221 29 2 4.950 5.657 0.707
222 29 2 5.657 5.657 0.000
223 29 2 6.364 6.364 0.000
224 29 2 5.657 6.364 0.707
225 29 2 6.364 5.657 0.707
226 29 2 7.071 5.657 0.000
227 29 2 7.778 6.364 0.000
228 29 2 7.071 6.364 0.707
229 29 2 7.778 5.657 0.707
230 29 2 8.485 5.657 0.000
231 29 2 9.192 6.364 0.000
232 29 2 8.485 6.364 0.707
233 29 2 9.192 5.657 0.707
234 29 2 2.121 7.071 0.707
235 29 2 2.828 7.071 0.000
236 29 2 3.536 7.778 0.000
237 29 2 2.828 7.778 0.707
238 29 2 3.536 7.071 0.707
239 29 2 4.243 7.071 0.000
240 29 2 4.950 7.778 0.000
241 29 2 4.243 7.778 0.707
242 29 2 4.950 7.071 0.707
243 29 2 5.657 7.071 0.000
244 29 2 6.364 7.778 0.000
245 29 2 5.657 7.778 0.707
246 29 2 6.364 7.071 0.707
247 29 2 7.071 7.071 0.000
248 29 2 7.778 7.778 0.000
249 29 2 7.071 7.778 0.707
250 29 2 7.778 7.071 0.707
251 29 2 8.485 7.071 0.000
252 29 2 8.485 7.778 0.707
253 29 2 9.192 7.071 0.707
254 29 2 3.536 8.485 0.707
255 29 2 4.243 8.485 0.000
256 29 2 4.950 9.192 0.000
257 29 2 4.243 9.192 0.707
258 29 2 4.950 8.485 0.707
259 29 2 5.657 8.485 0.000
260 29 2 6.364 9.192 0.000
261 29 2 5.657 9.192 0.707
262 29 2 6.364 8.485 0.707
263 29 2 7.071 8.485 0.000
264 29 2 7.071 9.192 0.707
265 29 2 7.778 8.485 0.707
266 29 2 8.485 8.485 0.000
267 29 2 4.950 2.121 1.414
268 29 2 4.243 2.121 2.121
269 29 2 6.364 2.121 1.414
270 29 2 5.657 2.121 2.121
271 29 2 7.071 2.121 2.121
272 29 2 3.536 3.536 1.414
273 29 2 2.828 3.536 2.121
274 29 2 3.536 2.828 2.121
275 29 2 4.243 2.828 1.414
276 29 2 4.950 3.536 1.414
277 29 2 4.243 3.536 2.121
278 29 2 4.950 2.828 2.121
279 29 2 5.657 2.828 1.414
280 29 2 6.364 3.536 1.414
281 29 2 5.657 3.536 2.121
282 29 2 6.364 2.828 2.121
283 29 2 7.071 2.828 1.414
284 29 2 7.778 3.536 1.414
285 29 2 7.071 3.536 2.121
286 29 2 7.778 2.828 2.121
287 29 2 8.485 3.536 2.121
288 29 2 2.121 4.950 1.414
289 29 2 2.121 4.243 2.121
290 29 2 2.828 4.243 1.414
291 29 2 3.536 4.950 1.414
292 29 2 2.828 4.950 2.121
293 29 2 3.536 4.243 2.121
294 29 2 4.243 4.243 1.414
295 29 2 4.950 4.950 1.414
296 29 2 4.243 4.950 2.121
297 29 2 4.950 4.243 2.121
298 29 2 5.657 4.243 1.414
299 29 2 6.364 4.950 1.414
300 29 2 5.657 4.950 2.121
301 29 2 6.364 4.243 2.121
302 29 2 7.071 4.243 1.414
303 29 2 7.778 4.950 1.414
304 29 2 7.071 4.950 2.121
305 29 2 7.778 4.243 2.121
306 29 2 8.485 4.243 1.414
307 29 2 9.192 4.950 1.414
308 29 2 8.485 4.950 2.121
309 29 2 9.192 4.243 2.121
310 29 2 2.121 6.364 1.414
311 29 2 2.121 5.657 2.121
312 29 2 2.828 5.657 1.414
313 29 2 3.536 6.364 1.414
314 29 2 2.828 6.364 2.121
315 29 2 3.536 5.657 2.121
316 29 2 4.243 5.657 1.414
317 29 2 4.950 6.364 1.414
318 29 2 4.243 6.364 2.121
319 29 2 4.950 5.657 2.121
320 29 2 5.657 5.657 1.414
321 29 2 6.364 6.364 1.414
322 29 2 5.657 6.364 2.121
323 29 2 6.364 5.657 2.121
324 29 2 7.071 5.657 1.414
325 29 2 7.778 6.364 1.414
326 29 2 7.071 6.364 2.121
327 29 2 7.778 5.657 2.121
328 29 2 8.485 5.657 1.414
329 29 2 9.192 6.364 1.414
330 29 2 8.485 6.364 2.121
331 29 2 9.192 5.657 2.121
332 29 2 2.121 7.071 2.121
333 29 2 2.828 7.071 1.414
334 29 2 3.536 7.778 1.414
335 29 2 2.828 7.778 2.121
336 29 2 3.536 7.071 2.121
337 29 2 4.243 7.071 1.414
338 29 2 4.950 7.778 1.414
339 29 2 4.243 7.778 2.121
340 29 2 4.950 7.071 2.121
341 29 2 5.657 7.071 1.414
342 29 2 6.364 7.778 1.414
343 29 2 5.657 7.778 2.121
344 29 2 6.364 7.071 2.121
345 29 2 7.071 7.071 1.414
346 29 2 7.778 7.778 1.414
347 29 2 7.071 7.778 2.121
348 29 2 7.778 7.071 2.121
349 29 2 8.485 7.071 1.414
350 29 2 8.485 7.778 2.121
351 29 2 9.192 7.071 2.121
352 29 2 3.536 8.485 2.121
353 29 2 4.243 8.485 1.414
354 29 2 4.950 9.192 1.414
355 29 2 4.243 9.192 2.121
356 29 2 4.950 8.485 2.121
357 29 2 5.657 8.485 1.414
358 29 2 6.364 9.192 1.414
359 29 2 5.657 9.192 2.121
360 29 2 6.364 8.485 2.121
361 29 2 7.071 8.485 1.414
362 29 2 7.071 9.192 2.121
363 29 2 7.778 8.485 2.121
364 29 2 8.485 8.485 1.414
365 29 2 4.950 2.121 2.828
366 29 2 4.243 2.121 3.536
367 29 2 6.364 2.121 2.828
368 29 2 5.657 2.121 3.536
369 29 2 7.071 2.121 3.536
370 29 2 3.536 3.536 2.828
371 29 2 2.828 3.536 3.536
372 29 2 3.536 2.828 3.536
373 29 2 4.243 2.828 2.828
374 29 2 4.950 3.536 2.828
375 29 2 4.243 3.536 3.536
376 29 2 4.950 2.828 3.536
377 29 2 5.657 2.828 2.828
378 29 2 6.364 3.536 2.828
379 29 2 5.657 3.536 3.536
380 29 2 6.364 2.828 3.536
381 29 2 7.071 2.828 2.828
382 29 2 7.778 3.536 2.828
383 29 2 7.071 3.536 3.536
384 29 2 7.778 2.828 3.536
385 29 2 8.485 3.536 3.536
386 29 2 2.121 4.950 2.828
387 29 2 2.121 4.243 3.536
388 29 2 2.828 4.243 2.828
389 29 2 3.536 4.950 2.828
390 29 2 2.828 4.950 3.536
391 29 2 3.536 4.243 3.536
392 29 2 4.243 4.243 2.828
393 29 2 4.950 4.950 2.828
394 29 2 4.243 4.950 3.536
395 29 2 4.950 4.243 3.536
396 29 2 5.657 4.243 2.828
397 29 2 6.364 4.950 2.828
398 29 2 5.657 4.950 3.536
399 29 2 6.364 4.243 3.536
400 29 2 7.071 4.243 2.828
401 29 2 7.778 4.950 2.828
402 29 2 7.071 4.950 3.536
403 29 2 7.778 4.243 3.536
404 29 2 8.485 4.243 2.828
405 29 2 9.192 4.950 2.828
406 29 2 8.485 4.950 3.536
407 29 2 9.192 4.243 3.536
408 29 2 2.121 6.364 2.828
409 29 2 2.121 5.657 3.536
410 29 2 2.828 5.657 2.828
411 29 2 3.536 6.364 2.828
412 29 2 2.828 6.364 3.536
413 29 2 3.536 5.657 3.536
414 29 2 4.243 5.657 2.828
415 29 2 4.950 6.364 2.828
416 29 2 4.243 6.364 3.536
417 29 2 4.950 5.657 3.536
418 29 2 5.657 5.657 2.828
419 29 2 6.364 6.364 2.828
420 29 2 5.657 6.364 3.536
421 29 2 6.364 5.657 3.536
422 29 2 7.071 5.657 2.828
423 29 2 7.778 6.364 2.828
424 29 2 7.071 6.364 3.536
425 29 2 7.778 5.657 3.536
426 29 2 8.485 5.657 2.828
427 29 2 9.192 6.364 2.828
428 29 2 8.485 6.364 3.536
429 29 2 9.192 5.657 3.536
430 29 2 2.121 7.071 3.536
431 29 2 2.828 7.071 2.828
432 29 2 3.536 7.778 2.828
433 29 2 2.828 7.778 3.536
434 29 2 3.536 7.071 3.536
435 29 2 4.243 7.071 2.828
436 29 2 4.950 7.778 2.828
437 29 2 4.243 7.778 3.536
438 29 2 4.950 7.071 3.536
439 29 2 5.657 7.071 2.828
440 29 2 6.364 7.778 2.828
441 29 2 5.657 7.778 3.536
442 29 2 6.364 7.071 3.536
443 29 2 7.071 7.071 2.828
444 29 2 7.778 7.778 2.828
445 29 2 7.071 7.778 3.536
446 29 2 7.778 7.071 3.536
447 29 2 8.485 7.071 2.828
448 29 2 8.485 7.778 3.536
449 29 2 9.192 7.071 3.536
450 29 2 3.536 8.485 3.536
451 29 2 4.243 8.485 2.828
452 29 2 4.950 9.192 2.828
453 29 2 4.243 9.192 3.536
454 29 2 4.950 8.485 3.536
455 29 2 5.657 8.485 2.828
456 29 2 6.364 9.192 2.828
457 29 2 5.657 9.192 3.536
458 29 2 6.364 8.485 3.536
459 29 2 7.071 8.485 2.828
460 29 2 7.071 9.192 3.536
461 29 2 7.778 8.485 3.536
462 29 2 8.485 8.485 2.828
463 29 2 4.950 2.121 4.243
464 29 2 4.243 2.121 4.950
465 29 2 6.364 2.121 4.243
466 29 2 5.657 2.121 4.950
467 29 2 7.071 2.121 4.950
468 29 2 3.536 3.536 4.243
469 29 2 2.828 3.536 4.950
470 29 2 3.536 2.828 4.950
471 29 2 4.243 2.828 4.243
472 29 2 4.950 3.536 4.243
473 29 2 4.243 3.536 4.950
474 29 2 4.950 2.828 4.950
475 29 2 5.657 2.828 4.243
476 29 2 6.364 3.536 4.243
477 29 2 5.657 3.536 4.950
478 29 2 6.364 2.828 4.950
479 29 2 7.071 2.828 4.243
480 29 2 7.778 3.536 4.243
481 29 2 7.071 3.536 4.950
482 29 2 7.778 2.828 4.950
483 29 2 8.485 3.536 4.950
484 29 2 2.121 4.950 4.243
485 29 2 2.121 4.243 4.950
486 29 2 2.828 4.243 4.243
487 29 2 3.536 4.950 4.243
488 29 2 2.828 4.950 4.950
489 29 2 3.536 4.243 4.950
490 29 2 4.243 4.243 4.243
491 29 2 4.950 4.950 4.243
492 29 2 4.243 4.950 4.950
493 29 2 4.950 4.243 4.950
494 29 2 5.657 4.243 4.243
495 29 2 6.364 4.950 4.243
496 29 2 5.657 4.950 4.950
497 29 2 6.364 4.243 4.950
498 29 2 7.071 4.243 4.243
499 29 2 7.778 4.950 4.243
500 29 2 7.071 4.950 4.950
501 29 2 7.778 4.243 4.950
502 29 2 8.485 4.243 4.243
503 29 2 9.192 4.950 4.243
504 29 2 8.485 4.950 4.950
505 29 2 9.192 4.243 4.950
506 29 2 2.121 6.364 4.243
507 29 2 2.121 5.657 4.950
508 29 2 2.828 5.657 4.243
509 29 2 3.536 6.364 4.243
510 29 2 2.828 6.364 4.950
511 29 2 3.536 5.657 4.950
512 29 2 4.243 5.657 4.243
513 29 2 4.950 6.364 4.243
514 29 2 4.243 6.364 4.950
515 29 2 4.950 5.657 4.950
516 29 2 5.657 5.657 4.243
517 29 2 6.364 6.364 4.243
518 29 2 5.657 6.364 4.950
519 29 2 6.364 5.657 4.950
520 29 2 7.071 5.657 4.243
521 29 2 7.778 6.364 4.243
522 29 2 7.071 6.364 4.950
523 29 2 7.778 5.657 4.950
524 29 2 8.485 5.657 4.243
525 29 2 9.192 6.364 4.243
526 29 2 8.485 6.364 4.950
527 29 2 9.192 5.657 4.950
528 29 2 2.121 7.071 4.950
529 29 2 2.828 7.071 4.243
530 29 2 3.536 7.778 4.243
531 29 2 2.828 7.778 4.950
532 29 2 3.536 7.071 4.950
533 29 2 4.243 7.071 4.243
534 29 2 4.950 7.778 4.243
535 29 2 4.243 7.778 4.950
536 29 2 4.950 7.071 4.950
537 29 2 5.657 7.071 4.243
538 29 2 6.364 7.778 4.243
539 29 2 5.657 7.778 4.950
540 29 2 6.364 7.071 4.950
541 29 2 7.071 7.071 4.243
542 29 2 7.778 7.778 4.243
543 29 2 7.071 7.778 4.950
544 29 2 7.778 7.071 4.950
545 29 2 8.485 7.071 4.243
546 29 2 8.485 7.778 4.950
547 29 2 9.192 7.071 4.950
548 29 2 3.536 8.485 4.950
549 29 2 4.243 8.485 4.243
550 29 2 4.950 9.192 4.243
551 29 2 4.243 9.192 4.950
552 29 2 4.950 8.485 4.950
553 29 2 5.657 8.485 4.243
554 29 2 6.364 9.192 4.243
555 29 2 5.657 9.192 4.950
556 29 2 6.364 8.485 4.950
557 29 2 7.071 8.485 4.243
558 29 2 7.071 9.192 4.950
559 29 2 7.778 8.485 4.950
560 29 2 8.485 8.485 4.243
561 29 2 4.950 2.121 5.657
562 29 2 4.243 2.121 6.364
563 29 2 6.364 2.121 5.657
564 29 2 5.657 2.121 6.364
565 29 2 7.071 2.121 6.364
566 29 2 3.536 3.536 5.657
567 29 2 2.828 3.536 6.364
568 29 2 3.536 2.828 6.364
569 29 2 4.243 2.828 5.657
570 29 2 4.950 3.536 5.657
571 29 2 4.243 3.536 6.364
572 29 2 4.950 2.828 6.364
573 29 2 5.657 2.828 5.657
574 29 2 6.364 3.536 5.657
575 29 2 5.657 3.536 6.364
576 29 2 6.364 2.828 6.364
577 29 2 7.071 2.828 5.657
578 29 2 7.778 3.536 5.657
579 29 2 7.071 3.536 6.364
580 29 2 7.778 2.828 6.364
581 29 2 8.485 3.536 6.364
582 29 2 2.121 4.950 5.657
583 29 2 2.121 4.243 6.364
584 29 2 2.828 4.243 5.657
585 29 2 3.536 4.950 5.657
586 29 2 2.828 4.950 6.364
587 29 2 3.536 4.243 6.364
588 29 2 4.243 4.243 5.657
589 29 2 4.950 4.950 5.657
590 29 2 4.243 4.950 6.364
591 29 2 4.950 4.243 6.364
592 29 2 5.657 4.243 5.657
593 29 2 6.364 4.950 5.657
594 29 2 5.657 4.950 6.364
595 29 2 6.364 4.243 6.364
596 29 2 7.071 4.243 5.657
597 29 2 7.778 4.950 5.657
598 29 2 7.071 4.950 6.364
599 29 2 7.778 4.243 6.364
600 29 2 8.485 4.243 5.657
601 29 2 9.192 4.950 5.657
602 29 2 8.485 4.950 6.364
603 29 2 9.192 4.243 6.364
604 29 2 2.121 6.364 5.657
605 29 2 2.121 5.657 6.364
606 29 2 2.828 5.657 5.657
607 29 2 3.536 6.364 5.657
608 29 2 2.828 6.364 6.364
609 29 2 3.536 5.657 6.364
610 29 2 4.243 5.657 5.657
611 29 2 4.950 6.364 5.657
612 29 2 4.243 6.364 6.364
613 29 2 4.950 5.657 6.364
614 29 2 5.657 5.657 5.657
615 29 2 6.364 6.364 5.657
616 29 2 5.657 6.364 6.364
617 29 2 6.364 5.657 6.364
618 29 2 7.071 5.657 5.657
619 29 2 7.778 6.364 5.657
620 29 2 7.071 6.364 6.364
621 29 2 7.778 5.657 6.364
622 29 2 8.485 5.657 5.657
623 29 2 9.192 6.364 5.657
624 29 2 8.485 6.364 6.364
625 29 2 9.192 5.657 6.364
626 29 2 2.121 7.071 6.364
627 29 2 2.828 7.071 5.657
628 29 2 3.536 7.778 5.657
629 29 2 2.828 7.778 6.364
630 29 2 3.536 7.071 6.364
631 29 2 4.243 7.071 5.657
632 29 2 4.950 7.778 5.657
633 29 2 4.243 7.778 6.364
634 29 2 4.950 7.071 6.364
635 29 2 5.657 7.071 5.657
636 29 2 6.364 7.778 5.657
637 29 2 5.657 7.778 6.364
638 29 2 6.364 7.071 6.364
639 29 2 7.071 7.071 5.657
640 29 2 7.778 7.778 5.657
641 29 2 7.071 7.778 6.364
642 29 2 7.778 7.071 6.364
643 29 2 8.485 7.071 5.657
644 29 2 8.485 7.778 6.364
645 29 2 9.192 7.071 6.364
646 29 2 3.536 8.485 6.364
647 29 2 4.243 8.485 5.657
648 29 2 4.950 9.192 5.657
649 29 2 4.243 9.192 6.364
650 29 2 4.950 8.485 6.364
651 29 2 5.657 8.485 5.657
652 29 2 6.364 9.192 5.657
653 29 2 5.657 9.192 6.364
654 29 2 6.364 8.485 6.364
655 29 2 7.071 8.485 5.657
656 29 2 7.071 9.192 6.364
657 29 2 7.778 8.485 6.364
658 29 2 8.485 8.485 5.657
659 29 2 4.950 2.121 7.071
660 29 2 4.243 2.121 7.778
661 29 2 6.364 2.121 7.071
662 29 2 5.657 2.121 7.778
663 29 2 7.071 2.121 7.778
664 29 2 3.536 3.536 7.071
665 29 2 2.828 3.536 7.778
666 29 2 3.536 2.828 7.778
667 29 2 4.243 2.828 7.071
668 29 2 4.950 3.536 7.071
669 29 2 4.243 3.536 7.778
670 29 2 4.950 2.828 7.778
671 29 2 5.657 2.828 7.071
672 29 2 6.364 3.536 7.071
673 29 2 5.657 3.536 7.778
674 29 2 6.364 2.828 7.778
675 29 2 7.071 2.828 7.071
676 29 2 7.778 3.536 7.071
677 29 2 7.071 3.536 7.778
678 29 2 7.778 2.828 7.778
679 29 2 8.485 3.536 7.778
680 29 2 2.121 4.950 7.071
681 29 2 2.121 4.243 7.778
682 29 2 2.828 4.243 7.071
683 29 2 3.536 4.950 7.071
684 29 2 2.828 4.950 7.778
685 29 2 3.536 4.243 7.778
686 29 2 4.243 4.243 7.071
687 29 2 4.950 4.950 7.071
688 29 2 4.243 4.950 7.778
689 29 2 4.950 4.243 7.778
690 29 2 5.657 4.243 7.071
691 29 2 6.364 4.950 7.071
692 29 2 5.657 4.950 7.778
693 29 2 6.364 4.243 7.778
694 29 2 7.071 4.243 7.071
695 29 2 7.778 4.950 7.071
696 29 2 7.071 4.950 7.778
697 29 2 7.778 4.243 7.778
698 29 2 8.485 4.243 7.071
699 29 2 9.192 4.950 7.071
700 29 2 8.485 4.950 7.778
701 29 2 9.192 4.243 7.778
702 29 2 2.121 6.364 7.071
703 29 2 2.121 5.657 7.778
704 29 2 2.828 5.657 7.071
705 29 2 3.536 6.364 7.071
706 29 2 2.828 6.364 7.778
707 29 2 3.536 5.657 7.778
708 29 2 4.243 5.657 7.071
709 29 2 4.950 6.364 7.071
710 29 2 4.243 6.364 7.778
711 29 2 4.950 5.657 7.778
712 29 2 5.657 5.657 7.071
713 29 2 6.364 6.364 7.071
714 29 2 5.657 6.364 7.778
715 29 2 6.364 5.657 7.778
716 29 2 7.071 5.657 7.071
717 29 2 7.778 6.364 7.071
718 29 2 7.071 6.364 7.778
719 29 2 7.778 5.657 7.778
720 29 2 8.485 5.657 7.071
721 29 2 9.192 6.364 7.071
722 29 2 8.485 6.364 7.778
723 29 2 9.192 5.657 7.778
724 29 2 2.121 7.071 7.778
725 29 2 2.828 7.071 7.071
726 29 2 3.536 7.778 7.071
727 29 2 2.828 7.778 7.778
728 29 2 3.536 7.071 7.778
729 29 2 4.243 7.071 7.071
730 29 2 4.950 7.778 7.071
731 29 2 4.243 7.778 7.778
732 29 2 4.950 7.071 7.778
733 29 2 5.657 7.071 7.071
734 29 2 6.364 7.778 7.071
735 29 2 5.657 7.778 7.778
736 29 2 6.364 7.071 7.778
737 29 2 7.071 7.071 7.071
738 29 2 7.778 7.778 7.071
739 29 2 7.071 7.778 7.778
740 29 2 7.778 7.071 7.778
741 29 2 8.485 7.071 7.071
742 29 2 8.485 7.778 7.778
743 29 2 9.192 7.071 7.778
744 29 2 3.536 8.485 7.778
745 29 2 4.243 8.485 7.071
746 29 2 4.950 9.192 7.071
747 29 2 4.243 9.192 7.778
748 29 2 4.950 8.485 7.778
749 29 2 5.657 8.485 7.071
750 29 2 6.364 9.192 7.071
751 29 2 5.657 9.192 7.778
752 29 2 6.364 8.485 7.778
753 29 2 7.071 8.485 7.071
754 29 2 7.071 9.192 7.778
755 29 2 7.778 8.485 7.778
756 29 2 8.485 8.485 7.071
757 29 2 4.950 2.121 8.485
758 29 2 4.243 2.121 9.192
759 29 2 6.364 2.121 8.485
760 29 2 5.657 2.121 9.192
761 29 2 7.071 2.121 9.192
762 29 2 3.536 3.536 8.485
763 29 2 2.828 3.536 9.192
764 29 2 3.536 2.828 9.192
765 29 2 4.243 2.828 8.485
766 29 2 4.950 3.536 8.485
767 29 2 4.243 3.536 9.192
768 29 2 4.950 2.828 9.192
769 29 2 5.657 2.828 8.485
770 29 2 6.364 3.536 8.485
771 29 2 5.657 3.536 9.192
772 29 2 6.364 2.828 9.192
773 29 2 7.071 2.828 8.485
774 29 2 7.778 3.536 8.485
775 29 2 7.071 3.536 9.192
776 29 2 7.778 2.828 9.192
777 29 2 8.485 3.536 9.192
778 29 2 2.121 4.950 8.485
779 29 2 2.121 4.243 9.192
780 29 2 2.828 4.243 8.485
781 29 2 3.536 4.950 8.485
782 29 2 2.828 4.950 9.192
783 29 2 3.536 4.243 9.192
784 29 2 4.243 4.243 8.485
785 29 2 4.950 4.950 8.485
786 29 2 4.243 4.950 9.192
787 29 2 4.950 4.243 9.192
788 29 2 5.657 4.243 8.485
789 29 2 6.364 4.950 8.485
790 29 2 5.657 4.950 9.192
791 29 2 6.364 4.243 9.192
792 29 2 7.071 4.243 8.485
793 29 2 7.778 4.950 8.485
794 29 2 7.071 4.950 9.192
795 29 2 7.778 4.243 9.192
796 29 2 8.485 4.243 8.485
797 29 2 9.192 4.950 8.485
798 29 2 8.485 4.950 9.192
799 29 2 9.192 4.243 9.192
800 29 2 2.121 6.364 8.485
801 29 2 2.121 5.657 9.192
802 29 2 2.828 5.657 8.485
803 29 2 3.536 6.364 8.485
804 29 2 2.828 6.364 9.192
805 29 2 3.536 5.657 9.192
806 29 2 4.243 5.657 8.485
807 29 2 4.950 6.364 8.485
808 29 2 4.243 6.364 9.192
809 29 2 4.950 5.657 9.192
810 29 2 5.657 5.657 8.485
811 29 2 6.364 6.364 8.485
812 29 2 5.657 6.364 9.192
813 29 2 6.364 5.657 9.192
814 29 2 7.071 5.657 8.485
815 29 2 7.778 6.364 8.485
816 29 2 7.071 6.364 9.192
817 29 2 7.778 5.657 9.192
818 29 2 8.485 5.657 8.485
819 29 2 9.192 6.364 8.485
820 29 2 8.485 6.364 9.192
821 29 2 9.192 5.657 9.192
822 29 2 2.121 7.071 9.192
823 29 2 2.828 7.071 8.485
824 29 2 3.536 7.778 8.485
825 29 2 2.828 7.778 9.192
826 29 2 3.536 7.071 9.192
827 29 2 4.243 7.071 8.485
828 29 2 4.950 7.778 8.485
829 29 2 4.243 7.778 9.192
830 29 2 4.950 7.071 9.192
831 29 2 5.657 7.071 8.485
832 29 2 6.364 7.778 8.485
833 29 2 5.657 7.778 9.192
834 29 2 6.364 7.071 9.192
835 29 2 7.071 7.071 8.485
836 29 2 7.778 7.778 8.485
837 29 2 7.071 7.778 9.192
838 29 2 7.778 7.071 9.192
839 29 2 8.485 7.071 8.485
840 29 2 8.485 7.778 9.192
841 29 2 9.192 7.071 9.192
842 29 2 3.536 8.485 9.192
843 29 2 4.243 8.485 8.485
844 29 2 4.950 9.192 8.485
845 29 2 4.243 9.192 9.192
846 29 2 4.950 8.485 9.192
847 29 2 5.657 8.485 8.485
848 29 2 6.364 9.192 8.485
849 29 2 5.657 9.192 9.192
850 29 2 6.364 8.485 9.192
851 29 2 7.071 8.485 8.485
852 29 2 7.071 9.192 9.192
853 29 2 7.778 8.485 9.192
854 29 2 8.485 8.485 8.485
855 29 2 4.950 2.121 9.899
856 29 2 4.243 2.121 10.607
857 29 2 6.364 2.121 9.899
858 29 2 5.657 2.121 10.607
859 29 2 7.071 2.121 10.607
860 29 2 3.536 3.536 9.899
861 29 2 2.828 3.536 10.607
862 29 2 3.536 2.828 10.607
863 29 2 4.243 2.828 9.899
864 29 2 4.950 3.536 9.899
865 29 2 4.243 3.536 10.607
866 29 2 4.950 2.828 10.607
867 29 2 5.657 2.828 9.899
868 29 2 6.364 3.536 9.899
869 29 2 5.657 3.536 10.607
870 29 2 6.364 2.828 10.607
871 29 2 7.071 2.828 9.899
872 29 2 7.778 3.536 9.899
873 29 2 7.071 3.536 10.607
874 29 2 7.778 2.828 10.607
875 29 2 8.485 3.536 10.607
876 29 2 2.121 4.950 9.899
877 29 2 2.121 4.243 10.607
878 29 2 2.828 4.243 9.899
879 29 2 3.536 4.950 9.899
880 29 2 2.828 4.950 10.607
881 29 2 3.536 4.243 10.607
882 29 2 4.243 4.243 9.899
883 29 2 4.950 4.950 9.899
884 29 2 4.243 4.950 10.607
885 29 2 4.950 4.243 10.607
886 29 2 5.657 4.243 9.899
887 29 2 6.364 4.950 9.899
888 29 2 5.657 4.950 10.607
889 29 2 6.364 4.243 10.607
890 29 2 7.071 4.243 9.899
891 29 2 7.778 4.950 9.899
892 29 2 7.071 4.950 10.607
893 29 2 7.778 4.243 10.607
894 29 2 8.485 4.243 9.899
895 29 2 9.192 4.950 9.899
896 29 2 8.485 4.950 10.607
897 29 2 9.192 4.243 10.607
898 29 2 2.121 6.364 9.899
899 29 2 2.121 5.657 10.607
900 29 2 2.828 5.657 9.899
901 29 2 3.536 6.364 9.899
902 29 2 2.828 6.364 10.607
903 29 2 3.536 5.657 10.607
904 29 2 4.243 5.657 9.899
905 29 2 4.950 6.364 9.899
906 29 2 4.243 6.364 10.607
907 29 2 4.950 5.657 10.607
908 29 2 5.657 5.657 9.899
909 29 2 6.364 6.364 9.899
910 29 2 5.657 6.364 10.607
911 29 2 6.364 5.657 10.607
912 29 2 7.071 5.657 9.899
913 29 2 7.778 6.364 9.899
914 29 2 7.071 6.364 10.607
915 29 2 7.778 5.657 10.607
916 29 2 8.485 5.657 9.899
917 29 2 9.192 6.364 9.899
918 29 2 8.485 6.364 10.607
919 29 2 9.192 5.657 10.607
920 29 2 2.121 7.071 10.607
921 29 2 2.828 7.071 9.899
922 29 2 3.536 7.778 9.899
923 29 2 2.828 7.778 10.607
924 29 2 3.536 7.071 10.607
925 29 2 4.243 7.071 9.899
926 29 2 4.950 7.778 9.899
927 29 2 4.243 7.778 10.607
928 29 2 4.950 7.071 10.607
929 29 2 5.657 7.071 9.899
930 29 2 6.364 7.778 9.899
931 29 2 5.657 7.778 10.607
932 29 2 6.364 7.071 10.607
933 29 2 7.071 7.071 9.899
934 29 2 7.778 7.778 9.899
935 29 2 7.071 7.778 10.607
936 29 2 7.778 7.071 10.607
937 29 2 8.485 7.071 9.899
938 29 2 8.485 7.778 10.607
939 29 2 9.192 7.071 10.607
940 29 2 3.536 8.485 10.607
941 29 2 4.243 8.485 9.899
942 29 2 4.950 9.192 9.899
943 29 2 4.243 9.192 10.607
944 29 2 4.950 8.485 10.607
945 29 2 5.657 8.485 9.899
946 29 2 6.364 9.192 9.899
947 29 2 5.657 9.192 10.607
948 29 2 6.364 8.485 10.607
949 29 2 7.071 8.485 9.899
950 29 2 7.071 9.192 10.607
951 29 2 7.778 8.485 10.607
952 29 2 8.485 8.485 9.899
953 29 2 4.950 2.121 11.314
954 29 2 4.243 2.121 12.021
955 29 2 6.364 2.121 11.314
956 29 2 5.657 2.121 12.021
957 29 2 7.071 2.121 12.021
958 29 2 3.536 3.536 11.314
959 29 2 2.828 3.536 12.021
960 29 2 3.536 2.828 12.021
961 29 2 4.243 2.828 11.314
962 29 2 4.950 3.536 11.314
963 29 2 4.243 3.536 12.021
964 29 2 4.950 2.828 12.021
965 29 2 5.657 2.828 11.314
966 29 2 6.364 3.536 11.314
967 29 2 5.657 3.536 12.021
968 29 2 6.364 2.828 12.021
969 29 2 7.071 2.828 11.314
970 29 2 7.778 3.536 11.314
971 29 2 7.071 3.536 12.021
972 29 2 7.778 2.828 12.021
973 29 2 8.485 3.536 12.021
974 29 2 2.121 4.950 11.314
975 29 2 2.121 4.243 12.021
976 29 2 2.828 4.243 11.314
977 29 2 3.536 4.950 11.314
978 29 2 2.828 4.950 12.021
979 29 2 3.536 4.243 12.021
980 29 2 4.243 4.243 11.314
981 29 2 4.950 4.950 11.314
982 29 2 4.243 4.950 12.021
983 29 2 4.950 4.243 12.021
984 29 2 5.657 4.243 11.314
985 29 2 6.364 4.950 11.314
986 29 2 5.657 4.950 12.021
987 29 2 6.364 4.243 12.021
988 29 2 7.071 4.243 11.314
989 29 2 7.778 4.950 11.314
990 29 2 7.071 4.950 12.021
991 29 2 7.778 4.243 12.021
992 29 2 8.485 4.243 11.314
993 29 2 9.192 4.950 11.314
994 29 2 8.485 4.950 12.021
995 29 2 9.192 4.243 12.021
996 29 2 2.121 6.364 11.314
997 29 2 2.121 5.657 12.021
998 29 2 2.828 5.657 11.314
999 29 2 3.536 6.364 11.314
1000 29 2 2.828 6.364 12.021
1001 29 2 3.536 5.657 12.021
1002 29 2 4.243 5.657 11.314
1003 29 2 4.950 6.364 11.314
1004 29 2 4.243 6.364 12.021
1005 29 2 4.950 5.657 12.021
1006 29 2 5.657 5.657 11.314
1007 29 2 6.364 6.364 11.314
1008 29 2 5.657 6.364 12.021
1009 29 2 6.364 5.657 12.021
1010 29 2 7.071 5.657 11.314
1011 29 2 7.778 6.364 11.314
1012 29 2 7.071 6.364 12.021
1013 29 2 7.778 5.657 12.021
1014 29 2 8.485 5.657 11.314
1015 29 2 9.192 6.364 11.314
1016 29 2 8.485 6.364 12.021
1017 29 2 9.192 5.657 12.021
1018 29 2 2.121 7.071 12.021
1019 29 2 2.828 7.071 11.314
1020 29 2 3.536 7.778 11.314
1021 29 2 2.828 7.778 12.021
1022 29 2 3.536 7.071 12.021
1023 29 2 4.243 7.071 11.314
1024 29 2 4.950 7.778 11.314
1025 29 2 4.243 7.778 12.021
1026 29 2 4.950 7.071 12.021
1027 29 2 5.657 7.071 11.314
1028 29 2 6.364 7.778 11.314
1029 29 2 5.657 7.778 12.021
1030 29 2 6.364 7.071 12.021
1031 29 2 7.071 7.071 11.314
1032 29 2 7.778 7.778 11.314
1033 29 2 7.071 7.778 12.021
1034 29 2 7.778 7.071 12.021
1035 29 2 8.485 7.071 11.314
1036 29 2 8.485 7.778 12.021
1037 29 2 9.192 7.071 12.021
1038 29 2 3.536 8.485 12.021
1039 29 2 4.243 8.485 11.314
1040 29 2 4.950 9.192 11.314
1041 29 2 4.243 9.192 12.021
1042 29 2 4.950 8.485 12.021
1043 29 2 5.657 8.485 11.314
1044 29 2 6.364 9.192 11.314
1045 29 2 5.657 9.192 12.021
1046 29 2 6.364 8.485 12.021
1047 29 2 7.071 8.485 11.314
1048 29 2 7.071 9.192 12.021
1049 29 2 7.778 8.485 12.021
1050 29 2 8.485 8.485 11.314
1051 29 2 4.950 2.121 12.728
1052 29 2 4.243 2.121 13.435
1053 29 2 6.364 2.121 12.728
1054 29 2 5.657 2.121 13.435
1055 29 2 7.071 2.121 13.435
1056 29 2 3.536 3.536 12.728
1057 29 2 2.828 3.536 13.435
1058 29 2 3.536 2.828 13.435
1059 29 2 4.243 2.828 12.728
1060 29 2 4.950 3.536 12.728
1061 29 2 4.243 3.536 13.435
1062 29 2 4.950 2.828 13.435
1063 29 2 5.657 2.828 12.728
1064 29 2 6.364 3.536 12.728
1065 29 2 5.657 3.536 13.435
1066 29 2 6.364 2.828 13.435
1067 29 2 7.071 2.828 12.728
1068 29 2 7.778 3.536 12.728
1069 29 2 7.071 3.536 13.435
1070 29 2 7.778 2.828 13.435
1071 29 2 8.485 3.536 13.435
1072 29 2 2.121 4.950 12.728
1073 29 2 2.121 4.243 13.435
1074 29 2 2.828 4.243 12.728
1075 29 2 3.536 4.950 12.728
1076 29 2 2.828 4.950 13.435
1077 29 2 3.536 4.243 13.435
1078 29 2 4.243 4.243 12.728
1079 29 2 4.950 4.950 12.728
1080 29 2 4.243 4.950 13.435
1081 29 2 4.950 4.243 13.435
1082 29 2 5.657 4.243 12.728
1083 29 2 6.364 4.950 12.728
1084 29 2 5.657 4.950 13.435
1085 29 2 6.364 4.243 13.435
1086 29 2 7.071 4.243 12.728
1087 29 2 7.778 4.950 12.728
1088 29 2 7.071 4.950 13.435
1089 29 2 7.778 4.243 13.435