lammps data file written by polyGraft

6 atoms
5 bonds
0 angles
0 dihedrals
0 impropers

1 atom types
1 bond types
0 angle types
0 dihedral types
0 improper types

-3.000 3.000 xlo xhi
-3.000 3.000 ylo yhi
-3.000 8.000 zlo zhi

Atoms

1 1 2 0 0 0
2 1 2 0 0 1
3 1 2 0 0 2
4 1 2 0 0 3
5 1 2 0 0 4
6 1 2 0 0 5

Bonds

1 1 1 2
2 1 2 3
3 1 3 4
4 1 4 5
5 1 5 6
