lammps data file written by polyGraft 

500 atoms
1876 bonds
0 angles
0 dihedrals
0 impropers

2 atom types
3 bond types
0 angle types
0 dihedral types
0 improper types

0.000 9.192 xlo xhi
0.000 9.192 ylo yhi
0.000 15.771 zlo zhi

Atoms

1 1 1 1.414 2.121 4.771
2 1 1 1.414 2.121 5.771
3 1 1 1.414 2.121 6.771
4 1 1 1.414 2.121 7.771
5 1 1 1.414 2.121 8.771
6 1 1 1.414 2.121 9.771
7 1 1 1.414 2.121 10.771
8 1 1 1.414 2.121 11.771
9 1 1 1.414 2.121 12.771
10 1 1 1.414 2.121 13.771
11 1 1 1.414 2.121 14.771
12 1 1 1.414 2.121 15.771
13 2 1 1.414 4.950 4.771
14 2 1 1.414 4.950 5.771
15 2 1 1.414 4.950 6.771
16 2 1 1.414 4.950 7.771
17 2 1 1.414 4.950 8.771
18 2 1 1.414 4.950 9.771
19 2 1 1.414 4.950 10.771
20 2 1 1.414 4.950 11.771
21 2 1 1.414 4.950 12.771
22 2 1 1.414 4.950 13.771
23 2 1 1.414 4.950 14.771
24 2 1 1.414 4.950 15.771
25 3 1 1.414 7.778 4.771
26 3 1 1.414 7.778 5.771
27 3 1 1.414 7.778 6.771
28 3 1 1.414 7.778 7.771
29 3 1 1.414 7.778 8.771
30 3 1 1.414 7.778 9.771
31 3 1 1.414 7.778 10.771
32 3 1 1.414 7.778 11.771
33 3 1 1.414 7.778 12.771
34 3 1 1.414 7.778 13.771
35 3 1 1.414 7.778 14.771
36 3 1 1.414 7.778 15.771
37 4 1 4.950 1.414 4.771
38 4 1 4.950 1.414 5.771
39 4 1 4.950 1.414 6.771
40 4 1 4.950 1.414 7.771
41 4 1 4.950 1.414 8.771
42 4 1 4.950 1.414 9.771
43 4 1 4.950 1.414 10.771
44 4 1 4.950 1.414 11.771
45 4 1 4.950 1.414 12.771
46 4 1 4.950 1.414 13.771
47 4 1 4.950 1.414 14.771
48 4 1 4.950 1.414 15.771
49 5 1 4.243 4.950 4.771
50 5 1 4.243 4.950 5.771
51 5 1 4.243 4.950 6.771
52 5 1 4.243 4.950 7.771
53 5 1 4.243 4.950 8.771
54 5 1 4.243 4.950 9.771
55 5 1 4.243 4.950 10.771
56 5 1 4.243 4.950 11.771
57 5 1 4.243 4.950 12.771
58 5 1 4.243 4.950 13.771
59 5 1 4.243 4.950 14.771
60 5 1 4.243 4.950 15.771
61 6 1 4.243 7.778 4.771
62 6 1 4.243 7.778 5.771
63 6 1 4.243 7.778 6.771
64 6 1 4.243 7.778 7.771
65 6 1 4.243 7.778 8.771
66 6 1 4.243 7.778 9.771
67 6 1 4.243 7.778 10.771
68 6 1 4.243 7.778 11.771
69 6 1 4.243 7.778 12.771
70 6 1 4.243 7.778 13.771
71 6 1 4.243 7.778 14.771
72 6 1 4.243 7.778 15.771
73 7 1 7.778 1.414 4.771
74 7 1 7.778 1.414 5.771
75 7 1 7.778 1.414 6.771
76 7 1 7.778 1.414 7.771
77 7 1 7.778 1.414 8.771
78 7 1 7.778 1.414 9.771
79 7 1 7.778 1.414 10.771
80 7 1 7.778 1.414 11.771
81 7 1 7.778 1.414 12.771
82 7 1 7.778 1.414 13.771
83 7 1 7.778 1.414 14.771
84 7 1 7.778 1.414 15.771
85 8 1 7.778 4.243 4.771
86 8 1 7.778 4.243 5.771
87 8 1 7.778 4.243 6.771
88 8 1 7.778 4.243 7.771
89 8 1 7.778 4.243 8.771
90 8 1 7.778 4.243 9.771
91 8 1 7.778 4.243 10.771
92 8 1 7.778 4.243 11.771
93 8 1 7.778 4.243 12.771
94 8 1 7.778 4.243 13.771
95 8 1 7.778 4.243 14.771
96 8 1 7.778 4.243 15.771
97 9 1 8.485 7.778 4.771
98 9 1 8.485 7.778 5.771
99 9 1 8.485 7.778 6.771
100 9 1 8.485 7.778 7.771
101 9 1 8.485 7.778 8.771
102 9 1 8.485 7.778 9.771
103 9 1 8.485 7.778 10.771
104 9 1 8.485 7.778 11.771
105 9 1 8.485 7.778 12.771
106 9 1 8.485 7.778 13.771
107 9 1 8.485 7.778 14.771
108 9 1 8.485 7.778 15.771
109 10 2 0.000 0.000 0.000
110 10 2 0.707 0.707 0.000
111 10 2 0.000 0.707 0.707
112 10 2 0.707 0.000 0.707
113 10 2 1.414 0.000 0.000
114 10 2 2.121 0.707 0.000
115 10 2 1.414 0.707 0.707
116 10 2 2.121 0.000 0.707
117 10 2 2.828 0.000 0.000
118 10 2 3.536 0.707 0.000
119 10 2 2.828 0.707 0.707
120 10 2 3.536 0.000 0.707
121 10 2 4.243 0.000 0.000
122 10 2 4.950 0.707 0.000
123 10 2 4.243 0.707 0.707
124 10 2 4.950 0.000 0.707
125 10 2 5.657 0.000 0.000
126 10 2 6.364 0.707 0.000
127 10 2 5.657 0.707 0.707
128 10 2 6.364 0.000 0.707
129 10 2 7.071 0.000 0.000
130 10 2 7.778 0.707 0.000
131 10 2 7.071 0.707 0.707
132 10 2 7.778 0.000 0.707
133 10 2 8.485 0.000 0.000
134 10 2 9.192 0.707 0.000
135 10 2 8.485 0.707 0.707
136 10 2 9.192 0.000 0.707
137 10 2 0.000 1.414 0.000
138 10 2 0.707 2.121 0.000
139 10 2 0.000 2.121 0.707
140 10 2 0.707 1.414 0.707
141 10 2 1.414 1.414 0.000
142 10 2 2.121 2.121 0.000
143 10 2 1.414 2.121 0.707
144 10 2 2.121 1.414 0.707
145 10 2 2.828 1.414 0.000
146 10 2 3.536 2.121 0.000
147 10 2 2.828 2.121 0.707
148 10 2 3.536 1.414 0.707
149 10 2 4.243 1.414 0.000
150 10 2 4.950 2.121 0.000
151 10 2 4.243 2.121 0.707
152 10 2 4.950 1.414 0.707
153 10 2 5.657 1.414 0.000
154 10 2 6.364 2.121 0.000
155 10 2 5.657 2.121 0.707
156 10 2 6.364 1.414 0.707
157 10 2 7.071 1.414 0.000
158 10 2 7.778 2.121 0.000
159 10 2 7.071 2.121 0.707
160 10 2 7.778 1.414 0.707
161 10 2 8.485 1.414 0.000
162 10 2 9.192 2.121 0.000
163 10 2 8.485 2.121 0.707
164 10 2 9.192 1.414 0.707
165 10 2 0.000 2.828 0.000
166 10 2 0.707 3.536 0.000
167 10 2 0.000 3.536 0.707
168 10 2 0.707 2.828 0.707
169 10 2 1.414 2.828 0.000
170 10 2 2.121 3.536 0.000
171 10 2 1.414 3.536 0.707
172 10 2 2.121 2.828 0.707
173 10 2 2.828 2.828 0.000
174 10 2 3.536 3.536 0.000
175 10 2 2.828 3.536 0.707
176 10 2 3.536 2.828 0.707
177 10 2 4.243 2.828 0.000
178 10 2 4.950 3.536 0.000
179 10 2 4.243 3.536 0.707
180 10 2 4.950 2.828 0.707
181 10 2 5.657 2.828 0.000
182 10 2 6.364 3.536 0.000
183 10 2 5.657 3.536 0.707
184 10 2 6.364 2.828 0.707
185 10 2 7.071 2.828 0.000
186 10 2 7.778 3.536 0.000
187 10 2 7.071 3.536 0.707
188 10 2 7.778 2.828 0.707
189 10 2 8.485 2.828 0.000
190 10 2 9.192 3.536 0.000
191 10 2 8.485 3.536 0.707
192 10 2 9.192 2.828 0.707
193 10 2 0.000 4.243 0.000
194 10 2 0.707 4.950 0.000
195 10 2 0.000 4.950 0.707
196 10 2 0.707 4.243 0.707
197 10 2 1.414 4.243 0.000
198 10 2 2.121 4.950 0.000
199 10 2 1.414 4.950 0.707
200 10 2 2.121 4.243 0.707
201 10 2 2.828 4.243 0.000
202 10 2 3.536 4.950 0.000
203 10 2 2.828 4.950 0.707
204 10 2 3.536 4.243 0.707
205 10 2 4.243 4.243 0.000
206 10 2 4.950 4.950 0.000
207 10 2 4.243 4.950 0.707
208 10 2 4.950 4.243 0.707
209 10 2 5.657 4.243 0.000
210 10 2 6.364 4.950 0.000
211 10 2 5.657 4.950 0.707
212 10 2 6.364 4.243 0.707
213 10 2 7.071 4.243 0.000
214 10 2 7.778 4.950 0.000
215 10 2 7.071 4.950 0.707
216 10 2 7.778 4.243 0.707
217 10 2 8.485 4.243 0.000
218 10 2 9.192 4.950 0.000
219 10 2 8.485 4.950 0.707
220 10 2 9.192 4.243 0.707
221 10 2 0.000 5.657 0.000
222 10 2 0.707 6.364 0.000
223 10 2 0.000 6.364 0.707
224 10 2 0.707 5.657 0.707
225 10 2 1.414 5.657 0.000
226 10 2 2.121 6.364 0.000
227 10 2 1.414 6.364 0.707
228 10 2 2.121 5.657 0.707
229 10 2 2.828 5.657 0.000
230 10 2 3.536 6.364 0.000
231 10 2 2.828 6.364 0.707
232 10 2 3.536 5.657 0.707
233 10 2 4.243 5.657 0.000
234 10 2 4.950 6.364 0.000
235 10 2 4.243 6.364 0.707
236 10 2 4.950 5.657 0.707
237 10 2 5.657 5.657 0.000
238 10 2 6.364 6.364 0.000
239 10 2 5.657 6.364 0.707
240 10 2 6.364 5.657 0.707
241 10 2 7.071 5.657 0.000
242 10 2 7.778 6.364 0.000
243 10 2 7.071 6.364 0.707
244 10 2 7.778 5.657 0.707
245 10 2 8.485 5.657 0.000
246 10 2 9.192 6.364 0.000
247 10 2 8.485 6.364 0.707
248 10 2 9.192 5.657 0.707
249 10 2 0.000 7.071 0.000
250 10 2 0.707 7.778 0.000
251 10 2 0.000 7.778 0.707
252 10 2 0.707 7.071 0.707
253 10 2 1.414 7.071 0.000
254 10 2 2.121 7.778 0.000
255 10 2 1.414 7.778 0.707
256 10 2 2.121 7.071 0.707
257 10 2 2.828 7.071 0.000
258 10 2 3.536 7.778 0.000
259 10 2 2.828 7.778 0.707
260 10 2 3.536 7.071 0.707
261 10 2 4.243 7.071 0.000
262 10 2 4.950 7.778 0.000
263 10 2 4.243 7.778 0.707
264 10 2 4.950 7.071 0.707
265 10 2 5.657 7.071 0.000
266 10 2 6.364 7.778 0.000
267 10 2 5.657 7.778 0.707
268 10 2 6.364 7.071 0.707
269 10 2 7.071 7.071 0.000
270 10 2 7.778 7.778 0.000
271 10 2 7.071 7.778 0.707
272 10 2 7.778 7.071 0.707
273 10 2 8.485 7.071 0.000
274 10 2 9.192 7.778 0.000
275 10 2 8.485 7.778 0.707
276 10 2 9.192 7.071 0.707
277 10 2 0.000 8.485 0.000
278 10 2 0.707 9.192 0.000
279 10 2 0.000 9.192 0.707
280 10 2 0.707 8.485 0.707
281 10 2 1.414 8.485 0.000
282 10 2 2.121 9.192 0.000
283 10 2 1.414 9.192 0.707
284 10 2 2.121 8.485 0.707
285 10 2 2.828 8.485 0.000
286 10 2 3.536 9.192 0.000
287 10 2 2.828 9.192 0.707
288 10 2 3.536 8.485 0.707
289 10 2 4.243 8.485 0.000
290 10 2 4.950 9.192 0.000
291 10 2 4.243 9.192 0.707
292 10 2 4.950 8.485 0.707
293 10 2 5.657 8.485 0.000
294 10 2 6.364 9.192 0.000
295 10 2 5.657 9.192 0.707
296 10 2 6.364 8.485 0.707
297 10 2 7.071 8.485 0.000
298 10 2 7.778 9.192 0.000
299 10 2 7.071 9.192 0.707
300 10 2 7.778 8.485 0.707
301 10 2 8.485 8.485 0.000
302 10 2 9.192 9.192 0.000
303 10 2 8.485 9.192 0.707
304 10 2 9.192 8.485 0.707
305 10 2 0.000 0.000 1.414
306 10 2 0.707 0.707 1.414
307 10 2 0.000 0.707 2.121
308 10 2 0.707 0.000 2.121
309 10 2 1.414 0.000 1.414
310 10 2 2.121 0.707 1.414
311 10 2 1.414 0.707 2.121
312 10 2 2.121 0.000 2.121
313 10 2 2.828 0.000 1.414
314 10 2 3.536 0.707 1.414
315 10 2 2.828 0.707 2.121
316 10 2 3.536 0.000 2.121
317 10 2 4.243 0.000 1.414
318 10 2 4.950 0.707 1.414
319 10 2 4.243 0.707 2.121
320 10 2 4.950 0.000 2.121
321 10 2 5.657 0.000 1.414
322 10 2 6.364 0.707 1.414
323 10 2 5.657 0.707 2.121
324 10 2 6.364 0.000 2.121
325 10 2 7.071 0.000 1.414
326 10 2 7.778 0.707 1.414
327 10 2 7.071 0.707 2.121
328 10 2 7.778 0.000 2.121
329 10 2 8.485 0.000 1.414
330 10 2 9.192 0.707 1.414
331 10 2 8.485 0.707 2.121
332 10 2 9.192 0.000 2.121
333 10 2 0.000 1.414 1.414
334 10 2 0.707 2.121 1.414
335 10 2 0.000 2.121 2.121
336 10 2 0.707 1.414 2.121
337 10 2 1.414 1.414 1.414
338 10 2 2.121 2.121 1.414
339 10 2 1.414 2.121 2.121
340 10 2 2.121 1.414 2.121
341 10 2 2.828 1.414 1.414
342 10 2 3.536 2.121 1.414
343 10 2 2.828 2.121 2.121
344 10 2 3.536 1.414 2.121
345 10 2 4.243 1.414 1.414
346 10 2 4.950 2.121 1.414
347 10 2 4.243 2.121 2.121
348 10 2 4.950 1.414 2.121
349 10 2 5.657 1.414 1.414
350 10 2 6.364 2.121 1.414
351 10 2 5.657 2.121 2.121
352 10 2 6.364 1.414 2.121
353 10 2 7.071 1.414 1.414
354 10 2 7.778 2.121 1.414
355 10 2 7.071 2.121 2.121
356 10 2 7.778 1.414 2.121
357 10 2 8.485 1.414 1.414
358 10 2 9.192 2.121 1.414
359 10 2 8.485 2.121 2.121
360 10 2 9.192 1.414 2.121
361 10 2 0.000 2.828 1.414
362 10 2 0.707 3.536 1.414
363 10 2 0.000 3.536 2.121
364 10 2 0.707 2.828 2.121
365 10 2 1.414 2.828 1.414
366 10 2 2.121 3.536 1.414
367 10 2 1.414 3.536 2.121
368 10 2 2.121 2.828 2.121
369 10 2 2.828 2.828 1.414
370 10 2 3.536 3.536 1.414
371 10 2 2.828 3.536 2.121
372 10 2 3.536 2.828 2.121
373 10 2 4.243 2.828 1.414
374 10 2 4.950 3.536 1.414
375 10 2 4.243 3.536 2.121
376 10 2 4.950 2.828 2.121
377 10 2 5.657 2.828 1.414
378 10 2 6.364 3.536 1.414
379 10 2 5.657 3.536 2.121
380 10 2 6.364 2.828 2.121
381 10 2 7.071 2.828 1.414
382 10 2 7.778 3.536 1.414
383 10 2 7.071 3.536 2.121
384 10 2 7.778 2.828 2.121
385 10 2 8.485 2.828 1.414
386 10 2 9.192 3.536 1.414
387 10 2 8.485 3.536 2.121
388 10 2 9.192 2.828 2.121
389 10 2 0.000 4.243 1.414
390 10 2 0.707 4.950 1.414
391 10 2 0.000 4.950 2.121
392 10 2 0.707 4.243 2.121
393 10 2 1.414 4.243 1.414
394 10 2 2.121 4.950 1.414
395 10 2 1.414 4.950 2.121
396 10 2 2.121 4.243 2.121
397 10 2 2.828 4.243 1.414
398 10 2 3.536 4.950 1.414
399 10 2 2.828 4.950 2.121
400 10 2 3.536 4.243 2.121
401 10 2 4.243 4.243 1.414
402 10 2 4.950 4.950 1.414
403 10 2 4.243 4.950 2.121
404 10 2 4.950 4.243 2.121
405 10 2 5.657 4.243 1.414
406 10 2 6.364 4.950 1.414
407 10 2 5.657 4.950 2.121
408 10 2 6.364 4.243 2.121
409 10 2 7.071 4.243 1.414
410 10 2 7.778 4.950 1.414
411 10 2 7.071 4.950 2.121
412 10 2 7.778 4.243 2.121
413 10 2 8.485 4.243 1.414
414 10 2 9.192 4.950 1.414
415 10 2 8.485 4.950 2.121
416 10 2 9.192 4.243 2.121
417 10 2 0.000 5.657 1.414
418 10 2 0.707 6.364 1.414
419 10 2 0.000 6.364 2.121
420 10 2 0.707 5.657 2.121
421 10 2 1.414 5.657 1.414
422 10 2 2.121 6.364 1.414
423 10 2 1.414 6.364 2.121
424 10 2 2.121 5.657 2.121
425 10 2 2.828 5.657 1.414
426 10 2 3.536 6.364 1.414
427 10 2 2.828 6.364 2.121
428 10 2 3.536 5.657 2.121
429 10 2 4.243 5.657 1.414
430 10 2 4.950 6.364 1.414
431 10 2 4.243 6.364 2.121
432 10 2 4.950 5.657 2.121
433 10 2 5.657 5.657 1.414
434 10 2 6.364 6.364 1.414
435 10 2 5.657 6.364 2.121
436 10 2 6.364 5.657 2.121
437 10 2 7.071 5.657 1.414
438 10 2 7.778 6.364 1.414
439 10 2 7.071 6.364 2.121
440 10 2 7.778 5.657 2.121
441 10 2 8.485 5.657 1.414
442 10 2 9.192 6.364 1.414
443 10 2 8.485 6.364 2.121
444 10 2 9.192 5.657 2.121
445 10 2 0.000 7.071 1.414
446 10 2 0.707 7.778 1.414
447 10 2 0.000 7.778 2.121
448 10 2 0.707 7.071 2.121
449 10 2 1.414 7.071 1.414
450 10 2 2.121 7.778 1.414
451 10 2 1.414 7.778 2.121
452 10 2 2.121 7.071 2.121
453 10 2 2.828 7.071 1.414
454 10 2 3.536 7.778 1.414
455 10 2 2.828 7.778 2.121
456 10 2 3.536 7.071 2.121
457 10 2 4.243 7.071 1.414
458 10 2 4.950 7.778 1.414
459 10 2 4.243 7.778 2.121
460 10 2 4.950 7.071 2.121
461 10 2 5.657 7.071 1.414
462 10 2 6.364 7.778 1.414
463 10 2 5.657 7.778 2.121
464 10 2 6.364 7.071 2.121
465 10 2 7.071 7.071 1.414
466 10 2 7.778 7.778 1.414
467 10 2 7.071 7.778 2.121
468 10 2 7.778 7.071 2.121
469 10 2 8.485 7.071 1.414
470 10 2 9.192 7.778 1.414
471 10 2 8.485 7.778 2.121
472 10 2 9.192 7.071 2.121
473 10 2 0.000 8.485 1.414
474 10 2 0.707 9.192 1.414
475 10 2 0.000 9.192 2.121
476 10 2 0.707 8.485 2.121
477 10 2 1.414 8.485 1.414
478 10 2 2.121 9.192 1.414
479 10 2 1.414 9.192 2.121
480 10 2 2.121 8.485 2.121
481 10 2 2.828 8.485 1.414
482 10 2 3.536 9.192 1.414
483 10 2 2.828 9.192 2.121
484 10 2 3.536 8.485 2.121
485 10 2 4.243 8.485 1.414
486 10 2 4.950 9.192 1.414
487 10 2 4.243 9.192 2.121
488 10 2 4.950 8.485 2.121
489 10 2 5.657 8.485 1.414
490 10 2 6.364 9.192 1.414
491 10 2 5.657 9.192 2.121
492 10 2 6.364 8.485 2.121
493 10 2 7.071 8.485 1.414
494 10 2 7.778 9.192 1.414
495 10 2 7.071 9.192 2.121
496 10 2 7.778 8.485 2.121
497 10 2 8.485 8.485 1.414
498 10 2 9.192 9.192 1.414
499 10 2 8.485 9.192 2.121
500 10 2 9.192 8.485 2.121

Bonds

1 1 1 2
2 1 2 3
3 1 3 4
4 1 4 5
5 1 5 6
6 1 6 7
7 1 7 8
8 1 8 9
9 1 9 10
10 1 10 11
11 1 11 12
12 1 13 14
13 1 14 15
14 1 15 16
15 1 16 17
16 1 17 18
17 1 18 19
18 1 19 20
19 1 20 21
20 1 21 22
21 1 22 23
22 1 23 24
23 1 25 26
24 1 26 27
25 1 27 28
26 1 28 29
27 1 29 30
28 1 30 31
29 1 31 32
30 1 32 33
31 1 33 34
32 1 34 35
33 1 35 36
34 1 37 38
35 1 38 39
36 1 39 40
37 1 40 41
38 1 41 42
39 1 42 43
40 1 43 44
41 1 44 45
42 1 45 46
43 1 46 47
44 1 47 48
45 1 49 50
46 1 50 51
47 1 51 52
48 1 52 53
49 1 53 54
50 1 54 55
51 1 55 56
52 1 56 57
53 1 57 58
54 1 58 59
55 1 59 60
56 1 61 62
57 1 62 63
58 1 63 64
59 1 64 65
60 1 65 66
61 1 66 67
62 1 67 68
63 1 68 69
64 1 69 70
65 1 70 71
66 1 71 72
67 1 73 74
68 1 74 75
69 1 75 76
70 1 76 77
71 1 77 78
72 1 78 79
73 1 79 80
74 1 80 81
75 1 81 82
76 1 82 83
77 1 83 84
78 1 85 86
79 1 86 87
80 1 87 88
81 1 88 89
82 1 89 90
83 1 90 91
84 1 91 92
85 1 92 93
86 1 93 94
87 1 94 95
88 1 95 96
89 1 97 98
90 1 98 99
91 1 99 100
92 1 100 101
93 1 101 102
94 1 102 103
95 1 103 104
96 1 104 105
97 1 105 106
98 1 106 107
99 1 107 108
100 2 109 110
101 2 109 111
102 2 109 112
103 2 110 111
104 2 110 112
105 2 110 113
106 2 110 115
107 2 110 137
108 2 110 140
109 2 110 141
110 2 111 112
111 2 111 137
112 2 111 140
113 2 111 305
114 2 111 306
115 2 111 333
116 2 112 113
117 2 112 115
118 2 112 305
119 2 112 306
120 2 112 309
121 2 113 114
122 2 113 115
123 2 113 116
124 2 114 115
125 2 114 116
126 2 114 117
127 2 114 119
128 2 114 141
129 2 114 144
130 2 114 145
131 2 115 116
132 2 115 140
133 2 115 141
134 2 115 144
135 2 115 306
136 2 115 309
137 2 115 310
138 2 115 337
139 2 116 117
140 2 116 119
141 2 116 309
142 2 116 310
143 2 116 313
144 2 117 118
145 2 117 119
146 2 117 120
147 2 118 119
148 2 118 120
149 2 118 121
150 2 118 123
151 2 118 145
152 2 118 148
153 2 118 149
154 2 119 120
155 2 119 144
156 2 119 145
157 2 119 148
158 2 119 310
159 2 119 313
160 2 119 314
161 2 119 341
162 2 120 121
163 2 120 123
164 2 120 313
165 2 120 314
166 2 120 317
167 2 121 122
168 2 121 123
169 2 121 124
170 2 122 123
171 2 122 124
172 2 122 125
173 2 122 127
174 2 122 149
175 2 122 152
176 2 122 153
177 2 123 124
178 2 123 148
179 2 123 149
180 2 123 152
181 2 123 314
182 2 123 317
183 2 123 318
184 2 123 345
185 2 124 125
186 2 124 127
187 2 124 317
188 2 124 318
189 2 124 321
190 2 125 126
191 2 125 127
192 2 125 128
193 2 126 127
194 2 126 128
195 2 126 129
196 2 126 131
197 2 126 153
198 2 126 156
199 2 126 157
200 2 127 128
201 2 127 152
202 2 127 153
203 2 127 156
204 2 127 318
205 2 127 321
206 2 127 322
207 2 127 349
208 2 128 129
209 2 128 131
210 2 128 321
211 2 128 322
212 2 128 325
213 2 129 130
214 2 129 131
215 2 129 132
216 2 130 131
217 2 130 132
218 2 130 133
219 2 130 135
220 2 130 157
221 2 130 160
222 2 130 161
223 2 131 132
224 2 131 156
225 2 131 157
226 2 131 160
227 2 131 322
228 2 131 325
229 2 131 326
230 2 131 353
231 2 132 133
232 2 132 135
233 2 132 325
234 2 132 326
235 2 132 329
236 2 133 134
237 2 133 135
238 2 133 136
239 2 134 135
240 2 134 136
241 2 134 161
242 2 134 164
243 2 135 136
244 2 135 160
245 2 135 161
246 2 135 164
247 2 135 326
248 2 135 329
249 2 135 330
250 2 135 357
251 2 136 329
252 2 136 330
253 2 137 138
254 2 137 139
255 2 137 140
256 2 138 139
257 2 138 140
258 2 138 141
259 2 138 143
260 2 138 165
261 2 138 168
262 2 138 169
263 2 139 140
264 2 139 165
265 2 139 168
266 2 139 333
267 2 139 334
268 2 139 361
269 2 140 141
270 2 140 143
271 2 140 306
272 2 140 333
273 2 140 334
274 2 140 337
275 2 141 142
276 2 141 143
277 2 141 144
278 2 142 143
279 2 142 144
280 2 142 145
281 2 142 147
282 2 142 169
283 2 142 172
284 2 142 173
285 2 143 144
286 2 143 168
287 2 143 169
288 2 143 172
289 2 143 334
290 2 143 337
291 2 143 338
292 2 143 365
293 2 144 145
294 2 144 147
295 2 144 310
296 2 144 337
297 2 144 338
298 2 144 341
299 2 145 146
300 2 145 147
301 2 145 148
302 2 146 147
303 2 146 148
304 2 146 149
305 2 146 151
306 2 146 173
307 2 146 176
308 2 146 177
309 2 147 148
310 2 147 172
311 2 147 173
312 2 147 176
313 2 147 338
314 2 147 341
315 2 147 342
316 2 147 369
317 2 148 149
318 2 148 151
319 2 148 314
320 2 148 341
321 2 148 342
322 2 148 345
323 2 149 150
324 2 149 151
325 2 149 152
326 2 150 151
327 2 150 152
328 2 150 153
329 2 150 155
330 2 150 177
331 2 150 180
332 2 150 181
333 2 151 152
334 2 151 176
335 2 151 177
336 2 151 180
337 2 151 342
338 2 151 345
339 2 151 346
340 2 151 373
341 2 152 153
342 2 152 155
343 2 152 318
344 2 152 345
345 2 152 346
346 2 152 349
347 2 153 154
348 2 153 155
349 2 153 156
350 2 154 155
351 2 154 156
352 2 154 157
353 2 154 159
354 2 154 181
355 2 154 184
356 2 154 185
357 2 155 156
358 2 155 180
359 2 155 181
360 2 155 184
361 2 155 346
362 2 155 349
363 2 155 350
364 2 155 377
365 2 156 157
366 2 156 159
367 2 156 322
368 2 156 349
369 2 156 350
370 2 156 353
371 2 157 158
372 2 157 159
373 2 157 160
374 2 158 159
375 2 158 160
376 2 158 161
377 2 158 163
378 2 158 185
379 2 158 188
380 2 158 189
381 2 159 160
382 2 159 184
383 2 159 185
384 2 159 188
385 2 159 350
386 2 159 353
387 2 159 354
388 2 159 381
389 2 160 161
390 2 160 163
391 2 160 326
392 2 160 353
393 2 160 354
394 2 160 357
395 2 161 162
396 2 161 163
397 2 161 164
398 2 162 163
399 2 162 164
400 2 162 189
401 2 162 192
402 2 163 164
403 2 163 188
404 2 163 189
405 2 163 192
406 2 163 354
407 2 163 357
408 2 163 358
409 2 163 385
410 2 164 330
411 2 164 357
412 2 164 358
413 2 165 166
414 2 165 167
415 2 165 168
416 2 166 167
417 2 166 168
418 2 166 169
419 2 166 171
420 2 166 193
421 2 166 196
422 2 166 197
423 2 167 168
424 2 167 193
425 2 167 196
426 2 167 361
427 2 167 362
428 2 167 389
429 2 168 169
430 2 168 171
431 2 168 334
432 2 168 361
433 2 168 362
434 2 168 365
435 2 169 170
436 2 169 171
437 2 169 172
438 2 170 171
439 2 170 172
440 2 170 173
441 2 170 175
442 2 170 197
443 2 170 200
444 2 170 201
445 2 171 172
446 2 171 196
447 2 171 197
448 2 171 200
449 2 171 362
450 2 171 365
451 2 171 366
452 2 171 393
453 2 172 173
454 2 172 175
455 2 172 338
456 2 172 365
457 2 172 366
458 2 172 369
459 2 173 174
460 2 173 175
461 2 173 176
462 2 174 175
463 2 174 176
464 2 174 177
465 2 174 179
466 2 174 201
467 2 174 204
468 2 174 205
469 2 175 176
470 2 175 200
471 2 175 201
472 2 175 204
473 2 175 366
474 2 175 369
475 2 175 370
476 2 175 397
477 2 176 177
478 2 176 179
479 2 176 342
480 2 176 369
481 2 176 370
482 2 176 373
483 2 177 178
484 2 177 179
485 2 177 180
486 2 178 179
487 2 178 180
488 2 178 181
489 2 178 183
490 2 178 205
491 2 178 208
492 2 178 209
493 2 179 180
494 2 179 204
495 2 179 205
496 2 179 208
497 2 179 370
498 2 179 373
499 2 179 374
500 2 179 401
501 2 180 181
502 2 180 183
503 2 180 346
504 2 180 373
505 2 180 374
506 2 180 377
507 2 181 182
508 2 181 183
509 2 181 184
510 2 182 183
511 2 182 184
512 2 182 185
513 2 182 187
514 2 182 209
515 2 182 212
516 2 182 213
517 2 183 184
518 2 183 208
519 2 183 209
520 2 183 212
521 2 183 374
522 2 183 377
523 2 183 378
524 2 183 405
525 2 184 185
526 2 184 187
527 2 184 350
528 2 184 377
529 2 184 378
530 2 184 381
531 2 185 186
532 2 185 187
533 2 185 188
534 2 186 187
535 2 186 188
536 2 186 189
537 2 186 191
538 2 186 213
539 2 186 216
540 2 186 217
541 2 187 188
542 2 187 212
543 2 187 213
544 2 187 216
545 2 187 378
546 2 187 381
547 2 187 382
548 2 187 409
549 2 188 189
550 2 188 191
551 2 188 354
552 2 188 381
553 2 188 382
554 2 188 385
555 2 189 190
556 2 189 191
557 2 189 192
558 2 190 191
559 2 190 192
560 2 190 217
561 2 190 220
562 2 191 192
563 2 191 216
564 2 191 217
565 2 191 220
566 2 191 382
567 2 191 385
568 2 191 386
569 2 191 413
570 2 192 358
571 2 192 385
572 2 192 386
573 2 193 194
574 2 193 195
575 2 193 196
576 2 194 195
577 2 194 196
578 2 194 197
579 2 194 199
580 2 194 221
581 2 194 224
582 2 194 225
583 2 195 196
584 2 195 221
585 2 195 224
586 2 195 389
587 2 195 390
588 2 195 417
589 2 196 197
590 2 196 199
591 2 196 362
592 2 196 389
593 2 196 390
594 2 196 393
595 2 197 198
596 2 197 199
597 2 197 200
598 2 198 199
599 2 198 200
600 2 198 201
601 2 198 203
602 2 198 225
603 2 198 228
604 2 198 229
605 2 199 200
606 2 199 224
607 2 199 225
608 2 199 228
609 2 199 390
610 2 199 393
611 2 199 394
612 2 199 421
613 2 200 201
614 2 200 203
615 2 200 366
616 2 200 393
617 2 200 394
618 2 200 397
619 2 201 202
620 2 201 203
621 2 201 204
622 2 202 203
623 2 202 204
624 2 202 205
625 2 202 207
626 2 202 229
627 2 202 232
628 2 202 233
629 2 203 204
630 2 203 228
631 2 203 229
632 2 203 232
633 2 203 394
634 2 203 397
635 2 203 398
636 2 203 425
637 2 204 205
638 2 204 207
639 2 204 370
640 2 204 397
641 2 204 398
642 2 204 401
643 2 205 206
644 2 205 207
645 2 205 208
646 2 206 207
647 2 206 208
648 2 206 209
649 2 206 211
650 2 206 233
651 2 206 236
652 2 206 237
653 2 207 208
654 2 207 232
655 2 207 233
656 2 207 236
657 2 207 398
658 2 207 401
659 2 207 402
660 2 207 429
661 2 208 209
662 2 208 211
663 2 208 374
664 2 208 401
665 2 208 402
666 2 208 405
667 2 209 210
668 2 209 211
669 2 209 212
670 2 210 211
671 2 210 212
672 2 210 213
673 2 210 215
674 2 210 237
675 2 210 240
676 2 210 241
677 2 211 212
678 2 211 236
679 2 211 237
680 2 211 240
681 2 211 402
682 2 211 405
683 2 211 406
684 2 211 433
685 2 212 213
686 2 212 215
687 2 212 378
688 2 212 405
689 2 212 406
690 2 212 409
691 2 213 214
692 2 213 215
693 2 213 216
694 2 214 215
695 2 214 216
696 2 214 217
697 2 214 219
698 2 214 241
699 2 214 244
700 2 214 245
701 2 215 216
702 2 215 240
703 2 215 241
704 2 215 244
705 2 215 406
706 2 215 409
707 2 215 410
708 2 215 437
709 2 216 217
710 2 216 219
711 2 216 382
712 2 216 409
713 2 216 410
714 2 216 413
715 2 217 218
716 2 217 219
717 2 217 220
718 2 218 219
719 2 218 220
720 2 218 245
721 2 218 248
722 2 219 220
723 2 219 244
724 2 219 245
725 2 219 248
726 2 219 410
727 2 219 413
728 2 219 414
729 2 219 441
730 2 220 386
731 2 220 413
732 2 220 414
733 2 221 222
734 2 221 223
735 2 221 224
736 2 222 223
737 2 222 224
738 2 222 225
739 2 222 227
740 2 222 249
741 2 222 252
742 2 222 253
743 2 223 224
744 2 223 249
745 2 223 252
746 2 223 417
747 2 223 418
748 2 223 445
749 2 224 225
750 2 224 227
751 2 224 390
752 2 224 417
753 2 224 418
754 2 224 421
755 2 225 226
756 2 225 227
757 2 225 228
758 2 226 227
759 2 226 228
760 2 226 229
761 2 226 231
762 2 226 253
763 2 226 256
764 2 226 257
765 2 227 228
766 2 227 252
767 2 227 253
768 2 227 256
769 2 227 418
770 2 227 421
771 2 227 422
772 2 227 449
773 2 228 229
774 2 228 231
775 2 228 394
776 2 228 421
777 2 228 422
778 2 228 425
779 2 229 230
780 2 229 231
781 2 229 232
782 2 230 231
783 2 230 232
784 2 230 233
785 2 230 235
786 2 230 257
787 2 230 260
788 2 230 261
789 2 231 232
790 2 231 256
791 2 231 257
792 2 231 260
793 2 231 422
794 2 231 425
795 2 231 426
796 2 231 453
797 2 232 233
798 2 232 235
799 2 232 398
800 2 232 425
801 2 232 426
802 2 232 429
803 2 233 234
804 2 233 235
805 2 233 236
806 2 234 235
807 2 234 236
808 2 234 237
809 2 234 239
810 2 234 261
811 2 234 264
812 2 234 265
813 2 235 236
814 2 235 260
815 2 235 261
816 2 235 264
817 2 235 426
818 2 235 429
819 2 235 430
820 2 235 457
821 2 236 237
822 2 236 239
823 2 236 402
824 2 236 429
825 2 236 430
826 2 236 433
827 2 237 238
828 2 237 239
829 2 237 240
830 2 238 239
831 2 238 240
832 2 238 241
833 2 238 243
834 2 238 265
835 2 238 268
836 2 238 269
837 2 239 240
838 2 239 264
839 2 239 265
840 2 239 268
841 2 239 430
842 2 239 433
843 2 239 434
844 2 239 461
845 2 240 241
846 2 240 243
847 2 240 406
848 2 240 433
849 2 240 434
850 2 240 437
851 2 241 242
852 2 241 243
853 2 241 244
854 2 242 243
855 2 242 244
856 2 242 245
857 2 242 247
858 2 242 269
859 2 242 272
860 2 242 273
861 2 243 244
862 2 243 268
863 2 243 269
864 2 243 272
865 2 243 434
866 2 243 437
867 2 243 438
868 2 243 465
869 2 244 245
870 2 244 247
871 2 244 410
872 2 244 437
873 2 244 438
874 2 244 441
875 2 245 246
876 2 245 247
877 2 245 248
878 2 246 247
879 2 246 248
880 2 246 273
881 2 246 276
882 2 247 248
883 2 247 272
884 2 247 273
885 2 247 276
886 2 247 438
887 2 247 441
888 2 247 442
889 2 247 469
890 2 248 414
891 2 248 441
892 2 248 442
893 2 249 250
894 2 249 251
895 2 249 252
896 2 250 251
897 2 250 252
898 2 250 253
899 2 250 255
900 2 250 277
901 2 250 280
902 2 250 281
903 2 251 252
904 2 251 277
905 2 251 280
906 2 251 445
907 2 251 446
908 2 251 473
909 2 252 253
910 2 252 255
911 2 252 418
912 2 252 445
913 2 252 446
914 2 252 449
915 2 253 254
916 2 253 255
917 2 253 256
918 2 254 255
919 2 254 256
920 2 254 257
921 2 254 259
922 2 254 281
923 2 254 284
924 2 254 285
925 2 255 256
926 2 255 280
927 2 255 281
928 2 255 284
929 2 255 446
930 2 255 449
931 2 255 450
932 2 255 477
933 2 256 257
934 2 256 259
935 2 256 422
936 2 256 449
937 2 256 450
938 2 256 453
939 2 257 258
940 2 257 259
941 2 257 260
942 2 258 259
943 2 258 260
944 2 258 261
945 2 258 263
946 2 258 285
947 2 258 288
948 2 258 289
949 2 259 260
950 2 259 284
951 2 259 285
952 2 259 288
953 2 259 450
954 2 259 453
955 2 259 454
956 2 259 481
957 2 260 261
958 2 260 263
959 2 260 426
960 2 260 453
961 2 260 454
962 2 260 457
963 2 261 262
964 2 261 263
965 2 261 264
966 2 262 263
967 2 262 264
968 2 262 265
969 2 262 267
970 2 262 289
971 2 262 292
972 2 262 293
973 2 263 264
974 2 263 288
975 2 263 289
976 2 263 292
977 2 263 454
978 2 263 457
979 2 263 458
980 2 263 485
981 2 264 265
982 2 264 267
983 2 264 430
984 2 264 457
985 2 264 458
986 2 264 461
987 2 265 266
988 2 265 267
989 2 265 268
990 2 266 267
991 2 266 268
992 2 266 269
993 2 266 271
994 2 266 293
995 2 266 296
996 2 266 297
997 2 267 268
998 2 267 292
999 2 267 293
1000 2 267 296
1001 2 267 458
1002 2 267 461
1003 2 267 462
1004 2 267 489
1005 2 268 269
1006 2 268 271
1007 2 268 434
1008 2 268 461
1009 2 268 462
1010 2 268 465
1011 2 269 270
1012 2 269 271
1013 2 269 272
1014 2 270 271
1015 2 270 272
1016 2 270 273
1017 2 270 275
1018 2 270 297
1019 2 270 300
1020 2 270 301
1021 2 271 272
1022 2 271 296
1023 2 271 297
1024 2 271 300
1025 2 271 462
1026 2 271 465
1027 2 271 466
1028 2 271 493
1029 2 272 273
1030 2 272 275
1031 2 272 438
1032 2 272 465
1033 2 272 466
1034 2 272 469
1035 2 273 274
1036 2 273 275
1037 2 273 276
1038 2 274 275
1039 2 274 276
1040 2 274 301
1041 2 274 304
1042 2 275 276
1043 2 275 300
1044 2 275 301
1045 2 275 304
1046 2 275 466
1047 2 275 469
1048 2 275 470
1049 2 275 497
1050 2 276 442
1051 2 276 469
1052 2 276 470
1053 2 277 278
1054 2 277 279
1055 2 277 280
1056 2 278 279
1057 2 278 280
1058 2 278 281
1059 2 278 283
1060 2 279 280
1061 2 279 473
1062 2 279 474
1063 2 280 281
1064 2 280 283
1065 2 280 446
1066 2 280 473
1067 2 280 474
1068 2 280 477
1069 2 281 282
1070 2 281 283
1071 2 281 284
1072 2 282 283
1073 2 282 284
1074 2 282 285
1075 2 282 287
1076 2 283 284
1077 2 283 474
1078 2 283 477
1079 2 283 478
1080 2 284 285
1081 2 284 287
1082 2 284 450
1083 2 284 477
1084 2 284 478
1085 2 284 481
1086 2 285 286
1087 2 285 287
1088 2 285 288
1089 2 286 287
1090 2 286 288
1091 2 286 289
1092 2 286 291
1093 2 287 288
1094 2 287 478
1095 2 287 481
1096 2 287 482
1097 2 288 289
1098 2 288 291
1099 2 288 454
1100 2 288 481
1101 2 288 482
1102 2 288 485
1103 2 289 290
1104 2 289 291
1105 2 289 292
1106 2 290 291
1107 2 290 292
1108 2 290 293
1109 2 290 295
1110 2 291 292
1111 2 291 482
1112 2 291 485
1113 2 291 486
1114 2 292 293
1115 2 292 295
1116 2 292 458
1117 2 292 485
1118 2 292 486
1119 2 292 489
1120 2 293 294
1121 2 293 295
1122 2 293 296
1123 2 294 295
1124 2 294 296
1125 2 294 297
1126 2 294 299
1127 2 295 296
1128 2 295 486
1129 2 295 489
1130 2 295 490
1131 2 296 297
1132 2 296 299
1133 2 296 462
1134 2 296 489
1135 2 296 490
1136 2 296 493
1137 2 297 298
1138 2 297 299
1139 2 297 300
1140 2 298 299
1141 2 298 300
1142 2 298 301
1143 2 298 303
1144 2 299 300
1145 2 299 490
1146 2 299 493
1147 2 299 494
1148 2 300 301
1149 2 300 303
1150 2 300 466
1151 2 300 493
1152 2 300 494
1153 2 300 497
1154 2 301 302
1155 2 301 303
1156 2 301 304
1157 2 302 303
1158 2 302 304
1159 2 303 304
1160 2 303 494
1161 2 303 497
1162 2 303 498
1163 2 304 470
1164 2 304 497
1165 2 304 498
1166 2 305 306
1167 2 305 307
1168 2 305 308
1169 2 306 307
1170 2 306 308
1171 2 306 309
1172 2 306 311
1173 2 306 333
1174 2 306 336
1175 2 306 337
1176 2 307 308
1177 2 307 333
1178 2 307 336
1179 2 308 309
1180 2 308 311
1181 2 309 310