lammps data file written by polyGraft

12 atoms
11 bonds
0 angles
0 dihedrals
0 impropers

1 atom types
1 bond types
0 angle types
0 dihedral types
0 improper types

-3.000 3.000 xlo xhi
-3.000 3.000 ylo yhi
-3.000 14.000 zlo zhi

Atoms

1 1 1 0 0 0
2 1 1 0 0 1
3 1 1 0 0 2
4 1 1 0 0 3
5 1 1 0 0 4
6 1 1 0 0 5
7 1 1 0 0 6
8 1 1 0 0 7
9 1 1 0 0 8
10 1 1 0 0 9
11 1 1 0 0 10
12 1 1 0 0 11

Bonds

1 1 1 2
2 1 2 3
3 1 3 4
4 1 4 5
5 1 5 6
6 1 6 7
7 1 7 8
8 1 8 9
9 1 9 10
10 1 10 11
11 1 11 12
