lammps data file written by polyGraft 

2218 atoms
9267 bonds
0 angles
0 dihedrals
0 impropers

2 atom types
3 bond types
0 angle types
0 dihedral types
0 improper types

0.000 21.920 xlo xhi
0.000 21.920 ylo yhi
0.000 6.364 zlo zhi

Atoms

1 1 1 18.564 10.647 0.707
2 1 1 17.564 10.662 0.707
3 1 1 16.564 10.678 0.707
4 1 1 15.564 10.693 0.707
5 1 1 14.564 10.708 0.707
6 1 1 13.564 10.724 0.707
7 2 1 18.564 10.647 3.536
8 2 1 17.564 10.662 3.536
9 2 1 16.564 10.678 3.536
10 2 1 15.564 10.693 3.536
11 2 1 14.564 10.708 3.536
12 2 1 13.564 10.724 3.536
13 3 1 18.062 13.825 1.414
14 3 1 17.140 13.438 1.414
15 3 1 16.218 13.052 1.414
16 3 1 15.295 12.665 1.414
17 3 1 14.373 12.278 1.414
18 3 1 13.451 11.892 1.414
19 4 1 18.062 13.825 4.243
20 4 1 17.140 13.438 4.243
21 4 1 16.218 13.052 4.243
22 4 1 15.295 12.665 4.243
23 4 1 14.373 12.278 4.243
24 4 1 13.451 11.892 4.243
25 5 1 17.053 15.985 1.414
26 5 1 16.283 15.346 1.414
27 5 1 15.514 14.708 1.414
28 5 1 14.745 14.069 1.414
29 5 1 13.975 13.430 1.414
30 5 1 13.206 12.791 1.414
31 6 1 17.053 15.985 4.243
32 6 1 16.283 15.346 4.243
33 6 1 15.514 14.708 4.243
34 6 1 14.745 14.069 4.243
35 6 1 13.975 13.430 4.243
36 6 1 13.206 12.791 4.243
37 7 1 14.886 17.535 0.707
38 7 1 14.366 16.681 0.707
39 7 1 13.846 15.827 0.707
40 7 1 13.326 14.973 0.707
41 7 1 12.806 14.118 0.707
42 7 1 12.286 13.264 0.707
43 8 1 14.886 17.535 3.536
44 8 1 14.366 16.681 3.536
45 8 1 13.846 15.827 3.536
46 8 1 13.326 14.973 3.536
47 8 1 12.806 14.118 3.536
48 8 1 12.286 13.264 3.536
49 9 1 12.779 18.646 0.707
50 9 1 12.532 17.677 0.707
51 9 1 12.284 16.708 0.707
52 9 1 12.037 15.739 0.707
53 9 1 11.789 14.770 0.707
54 9 1 11.542 13.801 0.707
55 10 1 12.779 18.646 3.536
56 10 1 12.532 17.677 3.536
57 10 1 12.284 16.708 3.536
58 10 1 12.037 15.739 3.536
59 10 1 11.789 14.770 3.536
60 10 1 11.542 13.801 3.536
61 11 1 10.119 18.572 1.414
62 11 1 10.201 17.576 1.414
63 11 1 10.284 16.579 1.414
64 11 1 10.367 15.583 1.414
65 11 1 10.450 14.586 1.414
66 11 1 10.532 13.589 1.414
67 12 1 10.119 18.572 4.243
68 12 1 10.201 17.576 4.243
69 12 1 10.284 16.579 4.243
70 12 1 10.367 15.583 4.243
71 12 1 10.450 14.586 4.243
72 12 1 10.532 13.589 4.243
73 13 1 8.011 18.028 0.707
74 13 1 8.366 17.093 0.707
75 13 1 8.721 16.159 0.707
76 13 1 9.075 15.224 0.707
77 13 1 9.430 14.289 0.707
78 13 1 9.785 13.354 0.707
79 14 1 8.011 18.028 3.536
80 14 1 8.366 17.093 3.536
81 14 1 8.721 16.159 3.536
82 14 1 9.075 15.224 3.536
83 14 1 9.430 14.289 3.536
84 14 1 9.785 13.354 3.536
85 15 1 5.360 16.463 0.707
86 15 1 6.048 15.737 0.707
87 15 1 6.737 15.012 0.707
88 15 1 7.425 14.287 0.707
89 15 1 8.114 13.562 0.707
90 15 1 8.802 12.836 0.707
91 16 1 5.966 16.372 4.243
92 16 1 6.617 15.612 4.243
93 16 1 7.267 14.853 4.243
94 16 1 7.918 14.093 4.243
95 16 1 8.568 13.334 4.243
96 16 1 9.219 12.574 4.243
97 17 1 4.439 14.272 0.707
98 17 1 5.314 13.787 0.707
99 17 1 6.189 13.303 0.707
100 17 1 7.063 12.818 0.707
101 17 1 7.938 12.334 0.707
102 17 1 8.813 11.849 0.707
103 18 1 4.439 14.272 3.536
104 18 1 5.314 13.787 3.536
105 18 1 6.189 13.303 3.536
106 18 1 7.063 12.818 3.536
107 18 1 7.938 12.334 3.536
108 18 1 8.813 11.849 3.536
109 19 1 3.308 12.221 0.707
110 19 1 4.290 12.029 0.707
111 19 1 5.271 11.838 0.707
112 19 1 6.253 11.647 0.707
113 19 1 7.234 11.455 0.707
114 19 1 8.216 11.264 0.707
115 20 1 3.308 12.221 3.536
116 20 1 4.290 12.029 3.536
117 20 1 5.271 11.838 3.536
118 20 1 6.253 11.647 3.536
119 20 1 7.234 11.455 3.536
120 20 1 8.216 11.264 3.536
121 21 1 3.291 9.071 0.707
122 21 1 4.267 9.293 0.707
123 21 1 5.242 9.514 0.707
124 21 1 6.217 9.735 0.707
125 21 1 7.192 9.956 0.707
126 21 1 8.168 10.177 0.707
127 22 1 3.325 9.602 4.243
128 22 1 4.313 9.757 4.243
129 22 1 5.301 9.911 4.243
130 22 1 6.289 10.066 4.243
131 22 1 7.277 10.220 4.243
132 22 1 8.265 10.375 4.243
133 23 1 4.403 7.005 0.707
134 23 1 5.264 7.514 0.707
135 23 1 6.124 8.023 0.707
136 23 1 6.985 8.532 0.707
137 23 1 7.846 9.040 0.707
138 23 1 8.707 9.549 0.707
139 24 1 4.483 7.567 4.243
140 24 1 5.374 8.020 4.243
141 24 1 6.265 8.474 4.243
142 24 1 7.156 8.928 4.243
143 24 1 8.047 9.382 4.243
144 24 1 8.938 9.835 4.243
145 25 1 6.018 5.503 0.707
146 25 1 6.688 6.246 0.707
147 25 1 7.358 6.988 0.707
148 25 1 8.027 7.731 0.707
149 25 1 8.697 8.473 0.707
150 25 1 9.367 9.215 0.707
151 26 1 6.018 5.503 3.536
152 26 1 6.688 6.246 3.536
153 26 1 7.358 6.988 3.536
154 26 1 8.027 7.731 3.536
155 26 1 8.697 8.473 3.536
156 26 1 9.367 9.215 3.536
157 27 1 7.493 3.812 0.707
158 27 1 7.919 4.717 0.707
159 27 1 8.344 5.621 0.707
160 27 1 8.770 6.526 0.707
161 27 1 9.196 7.431 0.707
162 27 1 9.622 8.336 0.707
163 28 1 8.045 3.879 4.243
164 28 1 8.412 4.809 4.243
165 28 1 8.780 5.739 4.243
166 28 1 9.147 6.669 4.243
167 28 1 9.515 7.599 4.243
168 28 1 9.882 8.529 4.243
169 29 1 10.127 3.347 0.707
170 29 1 10.213 4.344 0.707
171 29 1 10.299 5.340 0.707
172 29 1 10.385 6.336 0.707
173 29 1 10.471 7.333 0.707
174 29 1 10.556 8.329 0.707
175 30 1 10.127 3.347 3.536
176 30 1 10.213 4.344 3.536
177 30 1 10.299 5.340 3.536
178 30 1 10.385 6.336 3.536
179 30 1 10.471 7.333 3.536
180 30 1 10.556 8.329 3.536
181 31 1 12.221 3.308 0.707
182 31 1 12.029 4.290 0.707
183 31 1 11.838 5.271 0.707
184 31 1 11.647 6.253 0.707
185 31 1 11.455 7.234 0.707
186 31 1 11.264 8.216 0.707
187 32 1 12.756 3.269 4.243
188 32 1 12.499 4.235 4.243
189 32 1 12.243 5.202 4.243
190 32 1 11.986 6.168 4.243
191 32 1 11.730 7.135 4.243
192 32 1 11.474 8.101 4.243
193 33 1 14.842 4.358 1.414
194 33 1 14.305 5.201 1.414
195 33 1 13.768 6.045 1.414
196 33 1 13.232 6.889 1.414
197 33 1 12.695 7.733 1.414
198 33 1 12.159 8.577 1.414
199 34 1 14.842 4.358 4.243
200 34 1 14.305 5.201 4.243
201 34 1 13.768 6.045 4.243
202 34 1 13.232 6.889 4.243
203 34 1 12.695 7.733 4.243
204 34 1 12.159 8.577 4.243
205 35 1 17.006 5.877 0.707
206 35 1 16.219 6.494 0.707
207 35 1 15.432 7.111 0.707
208 35 1 14.645 7.728 0.707
209 35 1 13.858 8.344 0.707
210 35 1 13.070 8.961 0.707
211 36 1 16.372 5.966 4.243
212 36 1 15.612 6.617 4.243
213 36 1 14.853 7.267 4.243
214 36 1 14.093 7.918 4.243
215 36 1 13.334 8.568 4.243
216 36 1 12.574 9.219 4.243
217 37 1 18.028 8.011 0.707
218 37 1 17.093 8.366 0.707
219 37 1 16.159 8.721 0.707
220 37 1 15.224 9.075 0.707
221 37 1 14.289 9.430 0.707
222 37 1 13.354 9.785 0.707
223 38 1 18.028 8.011 3.536
224 38 1 17.093 8.366 3.536
225 38 1 16.159 8.721 3.536
226 38 1 15.224 9.075 3.536
227 38 1 14.289 9.430 3.536
228 38 1 13.354 9.785 3.536
229 39 2 0.000 0.000 0.000
230 39 2 0.707 0.707 0.000
231 39 2 0.000 0.707 0.707
232 39 2 0.707 0.000 0.707
233 39 2 1.414 0.000 0.000
234 39 2 2.121 0.707 0.000
235 39 2 1.414 0.707 0.707
236 39 2 2.121 0.000 0.707
237 39 2 2.828 0.000 0.000
238 39 2 3.536 0.707 0.000
239 39 2 2.828 0.707 0.707
240 39 2 3.536 0.000 0.707
241 39 2 4.243 0.000 0.000
242 39 2 4.950 0.707 0.000
243 39 2 4.243 0.707 0.707
244 39 2 4.950 0.000 0.707
245 39 2 5.657 0.000 0.000
246 39 2 6.364 0.707 0.000
247 39 2 5.657 0.707 0.707
248 39 2 6.364 0.000 0.707
249 39 2 7.071 0.000 0.000
250 39 2 7.778 0.707 0.000
251 39 2 7.071 0.707 0.707
252 39 2 7.778 0.000 0.707
253 39 2 8.485 0.000 0.000
254 39 2 9.192 0.707 0.000
255 39 2 8.485 0.707 0.707
256 39 2 9.192 0.000 0.707
257 39 2 9.899 0.000 0.000
258 39 2 10.607 0.707 0.000
259 39 2 9.899 0.707 0.707
260 39 2 10.607 0.000 0.707
261 39 2 11.314 0.000 0.000
262 39 2 12.021 0.707 0.000
263 39 2 11.314 0.707 0.707
264 39 2 12.021 0.000 0.707
265 39 2 12.728 0.000 0.000
266 39 2 13.435 0.707 0.000
267 39 2 12.728 0.707 0.707
268 39 2 13.435 0.000 0.707
269 39 2 14.142 0.000 0.000
270 39 2 14.849 0.707 0.000
271 39 2 14.142 0.707 0.707
272 39 2 14.849 0.000 0.707
273 39 2 15.556 0.000 0.000
274 39 2 16.263 0.707 0.000
275 39 2 15.556 0.707 0.707
276 39 2 16.263 0.000 0.707
277 39 2 16.971 0.000 0.000
278 39 2 17.678 0.707 0.000
279 39 2 16.971 0.707 0.707
280 39 2 17.678 0.000 0.707
281 39 2 18.385 0.000 0.000
282 39 2 19.092 0.707 0.000
283 39 2 18.385 0.707 0.707
284 39 2 19.092 0.000 0.707
285 39 2 19.799 0.000 0.000
286 39 2 20.506 0.707 0.000
287 39 2 19.799 0.707 0.707
288 39 2 20.506 0.000 0.707
289 39 2 21.213 0.000 0.000
290 39 2 21.920 0.707 0.000
291 39 2 21.213 0.707 0.707
292 39 2 21.920 0.000 0.707
293 39 2 0.000 1.414 0.000
294 39 2 0.707 2.121 0.000
295 39 2 0.000 2.121 0.707
296 39 2 0.707 1.414 0.707
297 39 2 1.414 1.414 0.000
298 39 2 2.121 2.121 0.000
299 39 2 1.414 2.121 0.707
300 39 2 2.121 1.414 0.707
301 39 2 2.828 1.414 0.000
302 39 2 3.536 2.121 0.000
303 39 2 2.828 2.121 0.707
304 39 2 3.536 1.414 0.707
305 39 2 4.243 1.414 0.000
306 39 2 4.950 2.121 0.000
307 39 2 4.243 2.121 0.707
308 39 2 4.950 1.414 0.707
309 39 2 5.657 1.414 0.000
310 39 2 6.364 2.121 0.000
311 39 2 5.657 2.121 0.707
312 39 2 6.364 1.414 0.707
313 39 2 7.071 1.414 0.000
314 39 2 7.778 1.414 0.707
315 39 2 8.485 1.414 0.000
316 39 2 14.142 1.414 0.000
317 39 2 14.849 1.414 0.707
318 39 2 15.556 1.414 0.000
319 39 2 16.263 2.121 0.000
320 39 2 15.556 2.121 0.707
321 39 2 16.263 1.414 0.707
322 39 2 16.971 1.414 0.000
323 39 2 17.678 2.121 0.000
324 39 2 16.971 2.121 0.707
325 39 2 17.678 1.414 0.707
326 39 2 18.385 1.414 0.000
327 39 2 19.092 2.121 0.000
328 39 2 18.385 2.121 0.707
329 39 2 19.092 1.414 0.707
330 39 2 19.799 1.414 0.000
331 39 2 20.506 2.121 0.000
332 39 2 19.799 2.121 0.707
333 39 2 20.506 1.414 0.707
334 39 2 21.213 1.414 0.000
335 39 2 21.920 2.121 0.000
336 39 2 21.213 2.121 0.707
337 39 2 21.920 1.414 0.707
338 39 2 0.000 2.828 0.000
339 39 2 0.707 3.536 0.000
340 39 2 0.000 3.536 0.707
341 39 2 0.707 2.828 0.707
342 39 2 1.414 2.828 0.000
343 39 2 2.121 3.536 0.000
344 39 2 1.414 3.536 0.707
345 39 2 2.121 2.828 0.707
346 39 2 2.828 2.828 0.000
347 39 2 3.536 3.536 0.000
348 39 2 2.828 3.536 0.707
349 39 2 3.536 2.828 0.707
350 39 2 4.243 2.828 0.000
351 39 2 4.243 3.536 0.707
352 39 2 4.950 2.828 0.707
353 39 2 16.971 2.828 0.000
354 39 2 17.678 3.536 0.000
355 39 2 17.678 2.828 0.707
356 39 2 18.385 2.828 0.000
357 39 2 19.092 3.536 0.000
358 39 2 18.385 3.536 0.707
359 39 2 19.092 2.828 0.707
360 39 2 19.799 2.828 0.000
361 39 2 20.506 3.536 0.000
362 39 2 19.799 3.536 0.707
363 39 2 20.506 2.828 0.707
364 39 2 21.213 2.828 0.000
365 39 2 21.920 3.536 0.000
366 39 2 21.213 3.536 0.707
367 39 2 21.920 2.828 0.707
368 39 2 0.000 4.243 0.000
369 39 2 0.707 4.950 0.000
370 39 2 0.000 4.950 0.707
371 39 2 0.707 4.243 0.707
372 39 2 1.414 4.243 0.000
373 39 2 2.121 4.950 0.000
374 39 2 1.414 4.950 0.707
375 39 2 2.121 4.243 0.707
376 39 2 2.828 4.243 0.000
377 39 2 2.828 4.950 0.707
378 39 2 3.536 4.243 0.707
379 39 2 18.385 4.243 0.000
380 39 2 19.092 4.950 0.000
381 39 2 19.092 4.243 0.707
382 39 2 19.799 4.243 0.000
383 39 2 20.506 4.950 0.000
384 39 2 19.799 4.950 0.707
385 39 2 20.506 4.243 0.707
386 39 2 21.213 4.243 0.000
387 39 2 21.920 4.950 0.000
388 39 2 21.213 4.950 0.707
389 39 2 21.920 4.243 0.707
390 39 2 0.000 5.657 0.000
391 39 2 0.707 6.364 0.000
392 39 2 0.000 6.364 0.707
393 39 2 0.707 5.657 0.707
394 39 2 1.414 5.657 0.000
395 39 2 2.121 6.364 0.000
396 39 2 1.414 6.364 0.707
397 39 2 2.121 5.657 0.707
398 39 2 19.799 5.657 0.000
399 39 2 20.506 6.364 0.000
400 39 2 20.506 5.657 0.707
401 39 2 21.213 5.657 0.000
402 39 2 21.920 6.364 0.000
403 39 2 21.213 6.364 0.707
404 39 2 21.920 5.657 0.707
405 39 2 0.000 7.071 0.000
406 39 2 0.707 7.778 0.000
407 39 2 0.000 7.778 0.707
408 39 2 0.707 7.071 0.707
409 39 2 1.414 7.071 0.000
410 39 2 1.414 7.778 0.707
411 39 2 20.506 7.071 0.707
412 39 2 21.213 7.071 0.000
413 39 2 21.920 7.778 0.000
414 39 2 21.213 7.778 0.707
415 39 2 21.920 7.071 0.707
416 39 2 0.000 8.485 0.000
417 39 2 0.707 9.192 0.000
418 39 2 0.000 9.192 0.707
419 39 2 0.707 8.485 0.707
420 39 2 1.414 8.485 0.000
421 39 2 21.213 8.485 0.000
422 39 2 21.920 9.192 0.000
423 39 2 21.213 9.192 0.707
424 39 2 21.920 8.485 0.707
425 39 2 0.000 9.899 0.000
426 39 2 0.707 10.607 0.000
427 39 2 0.000 10.607 0.707
428 39 2 0.707 9.899 0.707
429 39 2 21.213 9.899 0.000
430 39 2 21.920 10.607 0.000
431 39 2 21.213 10.607 0.707
432 39 2 21.920 9.899 0.707
433 39 2 0.000 11.314 0.000
434 39 2 0.707 12.021 0.000
435 39 2 0.000 12.021 0.707
436 39 2 0.707 11.314 0.707
437 39 2 21.213 11.314 0.000
438 39 2 21.920 12.021 0.000
439 39 2 21.213 12.021 0.707
440 39 2 21.920 11.314 0.707
441 39 2 0.000 12.728 0.000
442 39 2 0.707 13.435 0.000
443 39 2 0.000 13.435 0.707
444 39 2 0.707 12.728 0.707
445 39 2 21.213 12.728 0.000
446 39 2 21.920 13.435 0.000
447 39 2 21.213 13.435 0.707
448 39 2 21.920 12.728 0.707
449 39 2 0.000 14.142 0.000
450 39 2 0.707 14.849 0.000
451 39 2 0.000 14.849 0.707
452 39 2 0.707 14.142 0.707
453 39 2 1.414 14.142 0.000
454 39 2 1.414 14.849 0.707
455 39 2 20.506 14.849 0.000
456 39 2 21.213 14.142 0.000
457 39 2 21.920 14.849 0.000
458 39 2 21.213 14.849 0.707
459 39 2 21.920 14.142 0.707
460 39 2 0.000 15.556 0.000
461 39 2 0.707 16.263 0.000
462 39 2 0.000 16.263 0.707
463 39 2 0.707 15.556 0.707
464 39 2 1.414 15.556 0.000
465 39 2 2.121 16.263 0.000
466 39 2 1.414 16.263 0.707
467 39 2 2.121 15.556 0.707
468 39 2 20.506 16.263 0.000
469 39 2 19.799 16.263 0.707
470 39 2 20.506 15.556 0.707
471 39 2 21.213 15.556 0.000
472 39 2 21.920 16.263 0.000
473 39 2 21.213 16.263 0.707
474 39 2 21.920 15.556 0.707
475 39 2 0.000 16.971 0.000
476 39 2 0.707 17.678 0.000
477 39 2 0.000 17.678 0.707
478 39 2 0.707 16.971 0.707
479 39 2 1.414 16.971 0.000
480 39 2 2.121 17.678 0.000
481 39 2 1.414 17.678 0.707
482 39 2 2.121 16.971 0.707
483 39 2 2.828 16.971 0.000
484 39 2 3.536 17.678 0.000
485 39 2 2.828 17.678 0.707
486 39 2 19.092 17.678 0.000
487 39 2 19.799 16.971 0.000
488 39 2 20.506 17.678 0.000
489 39 2 19.799 17.678 0.707
490 39 2 20.506 16.971 0.707
491 39 2 21.213 16.971 0.000
492 39 2 21.920 17.678 0.000
493 39 2 21.213 17.678 0.707
494 39 2 21.920 16.971 0.707
495 39 2 0.000 18.385 0.000
496 39 2 0.707 19.092 0.000
497 39 2 0.000 19.092 0.707
498 39 2 0.707 18.385 0.707
499 39 2 1.414 18.385 0.000
500 39 2 2.121 19.092 0.000
501 39 2 1.414 19.092 0.707
502 39 2 2.121 18.385 0.707
503 39 2 2.828 18.385 0.000
504 39 2 3.536 19.092 0.000
505 39 2 2.828 19.092 0.707
506 39 2 3.536 18.385 0.707
507 39 2 4.243 18.385 0.000
508 39 2 4.950 19.092 0.000
509 39 2 4.243 19.092 0.707
510 39 2 17.678 19.092 0.000
511 39 2 18.385 18.385 0.000
512 39 2 19.092 19.092 0.000
513 39 2 18.385 19.092 0.707
514 39 2 19.092 18.385 0.707
515 39 2 19.799 18.385 0.000
516 39 2 20.506 19.092 0.000
517 39 2 19.799 19.092 0.707
518 39 2 20.506 18.385 0.707
519 39 2 21.213 18.385 0.000
520 39 2 21.920 19.092 0.000
521 39 2 21.213 19.092 0.707
522 39 2 21.920 18.385 0.707
523 39 2 0.000 19.799 0.000
524 39 2 0.707 20.506 0.000
525 39 2 0.000 20.506 0.707
526 39 2 0.707 19.799 0.707
527 39 2 1.414 19.799 0.000
528 39 2 2.121 20.506 0.000
529 39 2 1.414 20.506 0.707
530 39 2 2.121 19.799 0.707
531 39 2 2.828 19.799 0.000
532 39 2 3.536 20.506 0.000
533 39 2 2.828 20.506 0.707
534 39 2 3.536 19.799 0.707
535 39 2 4.243 19.799 0.000
536 39 2 4.950 20.506 0.000
537 39 2 4.243 20.506 0.707
538 39 2 4.950 19.799 0.707
539 39 2 5.657 19.799 0.000
540 39 2 6.364 20.506 0.000
541 39 2 5.657 20.506 0.707
542 39 2 7.071 20.506 0.707
543 39 2 14.849 20.506 0.000
544 39 2 16.263 20.506 0.000
545 39 2 15.556 20.506 0.707
546 39 2 16.263 19.799 0.707
547 39 2 16.971 19.799 0.000
548 39 2 17.678 20.506 0.000
549 39 2 16.971 20.506 0.707
550 39 2 17.678 19.799 0.707
551 39 2 18.385 19.799 0.000
552 39 2 19.092 20.506 0.000
553 39 2 18.385 20.506 0.707
554 39 2 19.092 19.799 0.707
555 39 2 19.799 19.799 0.000
556 39 2 20.506 20.506 0.000
557 39 2 19.799 20.506 0.707
558 39 2 20.506 19.799 0.707
559 39 2 21.213 19.799 0.000
560 39 2 21.920 20.506 0.000
561 39 2 21.213 20.506 0.707
562 39 2 21.920 19.799 0.707
563 39 2 0.000 21.213 0.000
564 39 2 0.707 21.920 0.000
565 39 2 0.000 21.920 0.707
566 39 2 0.707 21.213 0.707
567 39 2 1.414 21.213 0.000
568 39 2 2.121 21.920 0.000
569 39 2 1.414 21.920 0.707
570 39 2 2.121 21.213 0.707
571 39 2 2.828 21.213 0.000
572 39 2 3.536 21.920 0.000
573 39 2 2.828 21.920 0.707
574 39 2 3.536 21.213 0.707
575 39 2 4.243 21.213 0.000
576 39 2 4.950 21.920 0.000
577 39 2 4.243 21.920 0.707
578 39 2 4.950 21.213 0.707
579 39 2 5.657 21.213 0.000
580 39 2 6.364 21.920 0.000
581 39 2 5.657 21.920 0.707
582 39 2 6.364 21.213 0.707
583 39 2 7.071 21.213 0.000
584 39 2 7.778 21.920 0.000
585 39 2 7.071 21.920 0.707
586 39 2 7.778 21.213 0.707
587 39 2 8.485 21.213 0.000
588 39 2 9.192 21.920 0.000
589 39 2 8.485 21.920 0.707
590 39 2 9.192 21.213 0.707
591 39 2 9.899 21.213 0.000
592 39 2 10.607 21.920 0.000
593 39 2 9.899 21.920 0.707
594 39 2 10.607 21.213 0.707
595 39 2 11.314 21.213 0.000
596 39 2 12.021 21.920 0.000
597 39 2 11.314 21.920 0.707
598 39 2 12.021 21.213 0.707
599 39 2 12.728 21.213 0.000
600 39 2 13.435 21.920 0.000
601 39 2 12.728 21.920 0.707
602 39 2 13.435 21.213 0.707
603 39 2 14.142 21.213 0.000
604 39 2 14.849 21.920 0.000
605 39 2 14.142 21.920 0.707
606 39 2 14.849 21.213 0.707
607 39 2 15.556 21.213 0.000
608 39 2 16.263 21.920 0.000
609 39 2 15.556 21.920 0.707
610 39 2 16.263 21.213 0.707
611 39 2 16.971 21.213 0.000
612 39 2 17.678 21.920 0.000
613 39 2 16.971 21.920 0.707
614 39 2 17.678 21.213 0.707
615 39 2 18.385 21.213 0.000
616 39 2 19.092 21.920 0.000
617 39 2 18.385 21.920 0.707
618 39 2 19.092 21.213 0.707
619 39 2 19.799 21.213 0.000
620 39 2 20.506 21.920 0.000
621 39 2 19.799 21.920 0.707
622 39 2 20.506 21.213 0.707
623 39 2 21.213 21.213 0.000
624 39 2 21.920 21.920 0.000
625 39 2 21.213 21.920 0.707
626 39 2 21.920 21.213 0.707
627 39 2 0.000 0.000 1.414
628 39 2 0.707 0.707 1.414
629 39 2 0.000 0.707 2.121
630 39 2 0.707 0.000 2.121
631 39 2 1.414 0.000 1.414
632 39 2 2.121 0.707 1.414
633 39 2 1.414 0.707 2.121
634 39 2 2.121 0.000 2.121
635 39 2 2.828 0.000 1.414
636 39 2 3.536 0.707 1.414
637 39 2 2.828 0.707 2.121
638 39 2 3.536 0.000 2.121
639 39 2 4.243 0.000 1.414
640 39 2 4.950 0.707 1.414
641 39 2 4.243 0.707 2.121
642 39 2 4.950 0.000 2.121
643 39 2 5.657 0.000 1.414
644 39 2 6.364 0.707 1.414
645 39 2 5.657 0.707 2.121
646 39 2 6.364 0.000 2.121
647 39 2 7.071 0.000 1.414
648 39 2 7.778 0.707 1.414
649 39 2 7.071 0.707 2.121
650 39 2 7.778 0.000 2.121
651 39 2 8.485 0.000 1.414
652 39 2 9.192 0.707 1.414
653 39 2 8.485 0.707 2.121
654 39 2 9.192 0.000 2.121
655 39 2 9.899 0.000 1.414
656 39 2 10.607 0.707 1.414
657 39 2 9.899 0.707 2.121
658 39 2 10.607 0.000 2.121
659 39 2 11.314 0.000 1.414
660 39 2 12.021 0.707 1.414
661 39 2 11.314 0.707 2.121
662 39 2 12.021 0.000 2.121
663 39 2 12.728 0.000 1.414
664 39 2 13.435 0.707 1.414
665 39 2 12.728 0.707 2.121
666 39 2 13.435 0.000 2.121
667 39 2 14.142 0.000 1.414
668 39 2 14.849 0.707 1.414
669 39 2 14.142 0.707 2.121
670 39 2 14.849 0.000 2.121
671 39 2 15.556 0.000 1.414
672 39 2 16.263 0.707 1.414
673 39 2 15.556 0.707 2.121
674 39 2 16.263 0.000 2.121
675 39 2 16.971 0.000 1.414
676 39 2 17.678 0.707 1.414
677 39 2 16.971 0.707 2.121
678 39 2 17.678 0.000 2.121
679 39 2 18.385 0.000 1.414
680 39 2 19.092 0.707 1.414
681 39 2 18.385 0.707 2.121
682 39 2 19.092 0.000 2.121
683 39 2 19.799 0.000 1.414
684 39 2 20.506 0.707 1.414
685 39 2 19.799 0.707 2.121
686 39 2 20.506 0.000 2.121
687 39 2 21.213 0.000 1.414
688 39 2 21.920 0.707 1.414
689 39 2 21.213 0.707 2.121
690 39 2 21.920 0.000 2.121
691 39 2 0.000 1.414 1.414
692 39 2 0.707 2.121 1.414
693 39 2 0.000 2.121 2.121
694 39 2 0.707 1.414 2.121
695 39 2 1.414 1.414 1.414
696 39 2 2.121 2.121 1.414
697 39 2 1.414 2.121 2.121
698 39 2 2.121 1.414 2.121
699 39 2 2.828 1.414 1.414
700 39 2 3.536 2.121 1.414
701 39 2 2.828 2.121 2.121
702 39 2 3.536 1.414 2.121
703 39 2 4.243 1.414 1.414
704 39 2 4.950 2.121 1.414
705 39 2 4.243 2.121 2.121
706 39 2 4.950 1.414 2.121
707 39 2 5.657 1.414 1.414
708 39 2 6.364 2.121 1.414
709 39 2 5.657 2.121 2.121
710 39 2 6.364 1.414 2.121
711 39 2 7.071 1.414 1.414
712 39 2 7.778 1.414 2.121
713 39 2 8.485 1.414 1.414
714 39 2 14.142 1.414 1.414
715 39 2 14.849 1.414 2.121
716 39 2 15.556 1.414 1.414
717 39 2 16.263 2.121 1.414
718 39 2 15.556 2.121 2.121
719 39 2 16.263 1.414 2.121
720 39 2 16.971 1.414 1.414
721 39 2 17.678 2.121 1.414
722 39 2 16.971 2.121 2.121
723 39 2 17.678 1.414 2.121
724 39 2 18.385 1.414 1.414
725 39 2 19.092 2.121 1.414
726 39 2 18.385 2.121 2.121
727 39 2 19.092 1.414 2.121
728 39 2 19.799 1.414 1.414
729 39 2 20.506 2.121 1.414
730 39 2 19.799 2.121 2.121
731 39 2 20.506 1.414 2.121
732 39 2 21.213 1.414 1.414
733 39 2 21.920 2.121 1.414
734 39 2 21.213 2.121 2.121
735 39 2 21.920 1.414 2.121
736 39 2 0.000 2.828 1.414
737 39 2 0.707 3.536 1.414
738 39 2 0.000 3.536 2.121
739 39 2 0.707 2.828 2.121
740 39 2 1.414 2.828 1.414
741 39 2 2.121 3.536 1.414
742 39 2 1.414 3.536 2.121
743 39 2 2.121 2.828 2.121
744 39 2 2.828 2.828 1.414
745 39 2 3.536 3.536 1.414
746 39 2 2.828 3.536 2.121
747 39 2 3.536 2.828 2.121
748 39 2 4.243 2.828 1.414
749 39 2 4.243 3.536 2.121
750 39 2 4.950 2.828 2.121
751 39 2 16.971 2.828 1.414
752 39 2 17.678 3.536 1.414
753 39 2 17.678 2.828 2.121
754 39 2 18.385 2.828 1.414
755 39 2 19.092 3.536 1.414
756 39 2 18.385 3.536 2.121
757 39 2 19.092 2.828 2.121
758 39 2 19.799 2.828 1.414
759 39 2 20.506 3.536 1.414
760 39 2 19.799 3.536 2.121
761 39 2 20.506 2.828 2.121
762 39 2 21.213 2.828 1.414
763 39 2 21.920 3.536 1.414
764 39 2 21.213 3.536 2.121
765 39 2 21.920 2.828 2.121
766 39 2 0.000 4.243 1.414
767 39 2 0.707 4.950 1.414
768 39 2 0.000 4.950 2.121
769 39 2 0.707 4.243 2.121
770 39 2 1.414 4.243 1.414
771 39 2 2.121 4.950 1.414
772 39 2 1.414 4.950 2.121
773 39 2 2.121 4.243 2.121
774 39 2 2.828 4.243 1.414
775 39 2 2.828 4.950 2.121
776 39 2 3.536 4.243 2.121
777 39 2 18.385 4.243 1.414
778 39 2 19.092 4.950 1.414
779 39 2 19.092 4.243 2.121
780 39 2 19.799 4.243 1.414
781 39 2 20.506 4.950 1.414
782 39 2 19.799 4.950 2.121
783 39 2 20.506 4.243 2.121
784 39 2 21.213 4.243 1.414
785 39 2 21.920 4.950 1.414
786 39 2 21.213 4.950 2.121
787 39 2 21.920 4.243 2.121
788 39 2 0.000 5.657 1.414
789 39 2 0.707 6.364 1.414
790 39 2 0.000 6.364 2.121
791 39 2 0.707 5.657 2.121
792 39 2 1.414 5.657 1.414
793 39 2 2.121 6.364 1.414
794 39 2 1.414 6.364 2.121
795 39 2 2.121 5.657 2.121
796 39 2 19.799 5.657 1.414
797 39 2 20.506 6.364 1.414
798 39 2 20.506 5.657 2.121
799 39 2 21.213 5.657 1.414
800 39 2 21.920 6.364 1.414
801 39 2 21.213 6.364 2.121
802 39 2 21.920 5.657 2.121
803 39 2 0.000 7.071 1.414
804 39 2 0.707 7.778 1.414
805 39 2 0.000 7.778 2.121
806 39 2 0.707 7.071 2.121
807 39 2 1.414 7.071 1.414
808 39 2 1.414 7.778 2.121
809 39 2 20.506 7.071 2.121
810 39 2 21.213 7.071 1.414
811 39 2 21.920 7.778 1.414
812 39 2 21.213 7.778 2.121
813 39 2 21.920 7.071 2.121
814 39 2 0.000 8.485 1.414
815 39 2 0.707 9.192 1.414
816 39 2 0.000 9.192 2.121
817 39 2 0.707 8.485 2.121
818 39 2 1.414 8.485 1.414
819 39 2 21.213 8.485 1.414
820 39 2 21.920 9.192 1.414
821 39 2 21.213 9.192 2.121
822 39 2 21.920 8.485 2.121
823 39 2 0.000 9.899 1.414
824 39 2 0.707 10.607 1.414
825 39 2 0.000 10.607 2.121
826 39 2 0.707 9.899 2.121
827 39 2 21.213 9.899 1.414
828 39 2 21.920 10.607 1.414
829 39 2 21.213 10.607 2.121
830 39 2 21.920 9.899 2.121
831 39 2 0.000 11.314 1.414
832 39 2 0.707 12.021 1.414
833 39 2 0.000 12.021 2.121
834 39 2 0.707 11.314 2.121
835 39 2 21.213 11.314 1.414
836 39 2 21.920 12.021 1.414
837 39 2 21.213 12.021 2.121
838 39 2 21.920 11.314 2.121
839 39 2 0.000 12.728 1.414
840 39 2 0.707 13.435 1.414
841 39 2 0.000 13.435 2.121
842 39 2 0.707 12.728 2.121
843 39 2 21.213 12.728 1.414
844 39 2 21.920 13.435 1.414
845 39 2 21.213 13.435 2.121
846 39 2 21.920 12.728 2.121
847 39 2 0.000 14.142 1.414
848 39 2 0.707 14.849 1.414
849 39 2 0.000 14.849 2.121
850 39 2 0.707 14.142 2.121
851 39 2 1.414 14.142 1.414
852 39 2 1.414 14.849 2.121
853 39 2 20.506 14.849 1.414
854 39 2 21.213 14.142 1.414
855 39 2 21.920 14.849 1.414
856 39 2 21.213 14.849 2.121
857 39 2 21.920 14.142 2.121
858 39 2 0.000 15.556 1.414
859 39 2 0.707 16.263 1.414
860 39 2 0.000 16.263 2.121
861 39 2 0.707 15.556 2.121
862 39 2 1.414 15.556 1.414
863 39 2 2.121 16.263 1.414
864 39 2 1.414 16.263 2.121
865 39 2 2.121 15.556 2.121
866 39 2 20.506 16.263 1.414
867 39 2 19.799 16.263 2.121
868 39 2 20.506 15.556 2.121
869 39 2 21.213 15.556 1.414
870 39 2 21.920 16.263 1.414
871 39 2 21.213 16.263 2.121
872 39 2 21.920 15.556 2.121
873 39 2 0.000 16.971 1.414
874 39 2 0.707 17.678 1.414
875 39 2 0.000 17.678 2.121
876 39 2 0.707 16.971 2.121
877 39 2 1.414 16.971 1.414
878 39 2 2.121 17.678 1.414
879 39 2 1.414 17.678 2.121
880 39 2 2.121 16.971 2.121
881 39 2 2.828 16.971 1.414
882 39 2 3.536 17.678 1.414
883 39 2 2.828 17.678 2.121
884 39 2 19.092 17.678 1.414
885 39 2 19.799 16.971 1.414
886 39 2 20.506 17.678 1.414
887 39 2 19.799 17.678 2.121
888 39 2 20.506 16.971 2.121
889 39 2 21.213 16.971 1.414
890 39 2 21.920 17.678 1.414
891 39 2 21.213 17.678 2.121
892 39 2 21.920 16.971 2.121
893 39 2 0.000 18.385 1.414
894 39 2 0.707 19.092 1.414
895 39 2 0.000 19.092 2.121
896 39 2 0.707 18.385 2.121
897 39 2 1.414 18.385 1.414
898 39 2 2.121 19.092 1.414
899 39 2 1.414 19.092 2.121
900 39 2 2.121 18.385 2.121
901 39 2 2.828 18.385 1.414
902 39 2 3.536 19.092 1.414
903 39 2 2.828 19.092 2.121
904 39 2 3.536 18.385 2.121
905 39 2 4.243 18.385 1.414
906 39 2 4.950 19.092 1.414
907 39 2 4.243 19.092 2.121
908 39 2 17.678 19.092 1.414
909 39 2 18.385 18.385 1.414
910 39 2 19.092 19.092 1.414
911 39 2 18.385 19.092 2.121
912 39 2 19.092 18.385 2.121
913 39 2 19.799 18.385 1.414
914 39 2 20.506 19.092 1.414
915 39 2 19.799 19.092 2.121
916 39 2 20.506 18.385 2.121
917 39 2 21.213 18.385 1.414
918 39 2 21.920 19.092 1.414
919 39 2 21.213 19.092 2.121
920 39 2 21.920 18.385 2.121
921 39 2 0.000 19.799 1.414
922 39 2 0.707 20.506 1.414
923 39 2 0.000 20.506 2.121
924 39 2 0.707 19.799 2.121
925 39 2 1.414 19.799 1.414
926 39 2 2.121 20.506 1.414
927 39 2 1.414 20.506 2.121
928 39 2 2.121 19.799 2.121
929 39 2 2.828 19.799 1.414
930 39 2 3.536 20.506 1.414
931 39 2 2.828 20.506 2.121
932 39 2 3.536 19.799 2.121
933 39 2 4.243 19.799 1.414
934 39 2 4.950 20.506 1.414
935 39 2 4.243 20.506 2.121
936 39 2 4.950 19.799 2.121
937 39 2 5.657 19.799 1.414
938 39 2 6.364 20.506 1.414
939 39 2 5.657 20.506 2.121
940 39 2 7.071 20.506 2.121
941 39 2 14.849 20.506 1.414
942 39 2 16.263 20.506 1.414
943 39 2 15.556 20.506 2.121
944 39 2 16.263 19.799 2.121
945 39 2 16.971 19.799 1.414
946 39 2 17.678 20.506 1.414
947 39 2 16.971 20.506 2.121
948 39 2 17.678 19.799 2.121
949 39 2 18.385 19.799 1.414
950 39 2 19.092 20.506 1.414
951 39 2 18.385 20.506 2.121
952 39 2 19.092 19.799 2.121
953 39 2 19.799 19.799 1.414
954 39 2 20.506 20.506 1.414
955 39 2 19.799 20.506 2.121
956 39 2 20.506 19.799 2.121
957 39 2 21.213 19.799 1.414
958 39 2 21.920 20.506 1.414
959 39 2 21.213 20.506 2.121
960 39 2 21.920 19.799 2.121
961 39 2 0.000 21.213 1.414
962 39 2 0.707 21.920 1.414
963 39 2 0.000 21.920 2.121
964 39 2 0.707 21.213 2.121
965 39 2 1.414 21.213 1.414
966 39 2 2.121 21.920 1.414
967 39 2 1.414 21.920 2.121
968 39 2 2.121 21.213 2.121
969 39 2 2.828 21.213 1.414
970 39 2 3.536 21.920 1.414
971 39 2 2.828 21.920 2.121
972 39 2 3.536 21.213 2.121
973 39 2 4.243 21.213 1.414
974 39 2 4.950 21.920 1.414
975 39 2 4.243 21.920 2.121
976 39 2 4.950 21.213 2.121
977 39 2 5.657 21.213 1.414
978 39 2 6.364 21.920 1.414
979 39 2 5.657 21.920 2.121
980 39 2 6.364 21.213 2.121
981 39 2 7.071 21.213 1.414
982 39 2 7.778 21.920 1.414
983 39 2 7.071 21.920 2.121
984 39 2 7.778 21.213 2.121
985 39 2 8.485 21.213 1.414
986 39 2 9.192 21.920 1.414
987 39 2 8.485 21.920 2.121
988 39 2 9.192 21.213 2.121
989 39 2 9.899 21.213 1.414
990 39 2 10.607 21.920 1.414
991 39 2 9.899 21.920 2.121
992 39 2 10.607 21.213 2.121
993 39 2 11.314 21.213 1.414
994 39 2 12.021 21.920 1.414
995 39 2 11.314 21.920 2.121
996 39 2 12.021 21.213 2.121
997 39 2 12.728 21.213 1.414
998 39 2 13.435 21.920 1.414
999 39 2 12.728 21.920 2.121
1000 39 2 13.435 21.213 2.121
1001 39 2 14.142 21.213 1.414
1002 39 2 14.849 21.920 1.414
1003 39 2 14.142 21.920 2.121
1004 39 2 14.849 21.213 2.121
1005 39 2 15.556 21.213 1.414
1006 39 2 16.263 21.920 1.414
1007 39 2 15.556 21.920 2.121
1008 39 2 16.263 21.213 2.121
1009 39 2 16.971 21.213 1.414
1010 39 2 17.678 21.920 1.414
1011 39 2 16.971 21.920 2.121
1012 39 2 17.678 21.213 2.121
1013 39 2 18.385 21.213 1.414
1014 39 2 19.092 21.920 1.414
1015 39 2 18.385 21.920 2.121
1016 39 2 19.092 21.213 2.121
1017 39 2 19.799 21.213 1.414
1018 39 2 20.506 21.920 1.414
1019 39 2 19.799 21.920 2.121
1020 39 2 20.506 21.213 2.121
1021 39 2 21.213 21.213 1.414
1022 39 2 21.920 21.920 1.414
1023 39 2 21.213 21.920 2.121
1024 39 2 21.920 21.213 2.121
1025 39 2 0.000 0.000 2.828
1026 39 2 0.707 0.707 2.828
1027 39 2 0.000 0.707 3.536
1028 39 2 0.707 0.000 3.536
1029 39 2 1.414 0.000 2.828
1030 39 2 2.121 0.707 2.828
1031 39 2 1.414 0.707 3.536
1032 39 2 2.121 0.000 3.536
1033 39 2 2.828 0.000 2.828
1034 39 2 3.536 0.707 2.828
1035 39 2 2.828 0.707 3.536
1036 39 2 3.536 0.000 3.536
1037 39 2 4.243 0.000 2.828
1038 39 2 4.950 0.707 2.828
1039 39 2 4.243 0.707 3.536
1040 39 2 4.950 0.000 3.536
1041 39 2 5.657 0.000 2.828
1042 39 2 6.364 0.707 2.828
1043 39 2 5.657 0.707 3.536
1044 39 2 6.364 0.000 3.536
1045 39 2 7.071 0.000 2.828
1046 39 2 7.778 0.707 2.828
1047 39 2 7.071 0.707 3.536
1048 39 2 7.778 0.000 3.536
1049 39 2 8.485 0.000 2.828
1050 39 2 9.192 0.707 2.828
1051 39 2 8.485 0.707 3.536
1052 39 2 9.192 0.000 3.536
1053 39 2 9.899 0.000 2.828
1054 39 2 10.607 0.707 2.828
1055 39 2 9.899 0.707 3.536
1056 39 2 10.607 0.000 3.536
1057 39 2 11.314 0.000 2.828
1058 39 2 12.021 0.707 2.828
1059 39 2 11.314 0.707 3.536
1060 39 2 12.021 0.000 3.536
1061 39 2 12.728 0.000 2.828
1062 39 2 13.435 0.707 2.828
1063 39 2 12.728 0.707 3.536
1064 39 2 13.435 0.000 3.536
1065 39 2 14.142 0.000 2.828
1066 39 2 14.849 0.707 2.828