 # Fcc Au oriented X=[100] Y=[010] Z=[001].
  
        5480  atoms
           1  atom types
 
      0.000000000000      42.426406870000  xlo xhi
      0.000000000000      42.426406870000  ylo yhi
      0.000000000000       7.071067810000  zlo zhi
 
Masses
 
            1   196.96656900            # Au
 
Atoms # atomic
 
         1    1        0.000000000000       0.000000000000       0.000000000000
         2    1        0.707106780000       0.707106780000       0.000000000000
         3    1        0.000000000000       0.707106780000       0.707106780000
         4    1        0.707106780000       0.000000000000       0.707106780000
         5    1        1.414213560000       0.000000000000       0.000000000000
         6    1        2.121320340000       0.707106780000       0.000000000000
         7    1        1.414213560000       0.707106780000       0.707106780000
         8    1        2.121320340000       0.000000000000       0.707106780000
         9    1        2.828427120000       0.000000000000       0.000000000000
        10    1        3.535533910000       0.707106780000       0.000000000000
        11    1        2.828427120000       0.707106780000       0.707106780000
        12    1        3.535533910000       0.000000000000       0.707106780000
        13    1        4.242640690000       0.000000000000       0.000000000000
        14    1        4.949747470000       0.707106780000       0.000000000000
        15    1        4.242640690000       0.707106780000       0.707106780000
        16    1        4.949747470000       0.000000000000       0.707106780000
        17    1        5.656854250000       0.000000000000       0.000000000000
        18    1        6.363961030000       0.707106780000       0.000000000000
        19    1        5.656854250000       0.707106780000       0.707106780000
        20    1        6.363961030000       0.000000000000       0.707106780000
        21    1        7.071067810000       0.000000000000       0.000000000000
        22    1        7.778174590000       0.707106780000       0.000000000000
        23    1        7.071067810000       0.707106780000       0.707106780000
        24    1        7.778174590000       0.000000000000       0.707106780000
        25    1        8.485281370000       0.000000000000       0.000000000000
        26    1        9.192388160000       0.707106780000       0.000000000000
        27    1        8.485281370000       0.707106780000       0.707106780000
        28    1        9.192388160000       0.000000000000       0.707106780000
        29    1        9.899494940000       0.000000000000       0.000000000000
        30    1       10.606601720000       0.707106780000       0.000000000000
        31    1        9.899494940000       0.707106780000       0.707106780000
        32    1       10.606601720000       0.000000000000       0.707106780000
        33    1       11.313708500000       0.000000000000       0.000000000000
        34    1       12.020815280000       0.707106780000       0.000000000000
        35    1       11.313708500000       0.707106780000       0.707106780000
        36    1       12.020815280000       0.000000000000       0.707106780000
        37    1       12.727922060000       0.000000000000       0.000000000000
        38    1       13.435028840000       0.707106780000       0.000000000000
        39    1       12.727922060000       0.707106780000       0.707106780000
        40    1       13.435028840000       0.000000000000       0.707106780000
        41    1       14.142135620000       0.000000000000       0.000000000000
        42    1       14.849242400000       0.707106780000       0.000000000000
        43    1       14.142135620000       0.707106780000       0.707106780000
        44    1       14.849242400000       0.000000000000       0.707106780000
        45    1       15.556349190000       0.000000000000       0.000000000000
        46    1       16.263455970000       0.707106780000       0.000000000000
        47    1       15.556349190000       0.707106780000       0.707106780000
        48    1       16.263455970000       0.000000000000       0.707106780000
        49    1       16.970562750000       0.000000000000       0.000000000000
        50    1       17.677669530000       0.707106780000       0.000000000000
        51    1       16.970562750000       0.707106780000       0.707106780000
        52    1       17.677669530000       0.000000000000       0.707106780000
        53    1       18.384776310000       0.000000000000       0.000000000000
        54    1       19.091883090000       0.707106780000       0.000000000000
        55    1       18.384776310000       0.707106780000       0.707106780000
        56    1       19.091883090000       0.000000000000       0.707106780000
        57    1       19.798989870000       0.000000000000       0.000000000000
        58    1       20.506096650000       0.707106780000       0.000000000000
        59    1       19.798989870000       0.707106780000       0.707106780000
        60    1       20.506096650000       0.000000000000       0.707106780000
        61    1       21.213203440000       0.000000000000       0.000000000000
        62    1       21.920310220000       0.707106780000       0.000000000000
        63    1       21.213203440000       0.707106780000       0.707106780000
        64    1       21.920310220000       0.000000000000       0.707106780000
        65    1       22.627417000000       0.000000000000       0.000000000000
        66    1       23.334523780000       0.707106780000       0.000000000000
        67    1       22.627417000000       0.707106780000       0.707106780000
        68    1       23.334523780000       0.000000000000       0.707106780000
        69    1       24.041630560000       0.000000000000       0.000000000000
        70    1       24.748737340000       0.707106780000       0.000000000000
        71    1       24.041630560000       0.707106780000       0.707106780000
        72    1       24.748737340000       0.000000000000       0.707106780000
        73    1       25.455844120000       0.000000000000       0.000000000000
        74    1       26.162950900000       0.707106780000       0.000000000000
        75    1       25.455844120000       0.707106780000       0.707106780000
        76    1       26.162950900000       0.000000000000       0.707106780000
        77    1       26.870057690000       0.000000000000       0.000000000000
        78    1       27.577164470000       0.707106780000       0.000000000000
        79    1       26.870057690000       0.707106780000       0.707106780000
        80    1       27.577164470000       0.000000000000       0.707106780000
        81    1       28.284271250000       0.000000000000       0.000000000000
        82    1       28.991378030000       0.707106780000       0.000000000000
        83    1       28.284271250000       0.707106780000       0.707106780000
        84    1       28.991378030000       0.000000000000       0.707106780000
        85    1       29.698484810000       0.000000000000       0.000000000000
        86    1       30.405591590000       0.707106780000       0.000000000000
        87    1       29.698484810000       0.707106780000       0.707106780000
        88    1       30.405591590000       0.000000000000       0.707106780000
        89    1       31.112698370000       0.000000000000       0.000000000000
        90    1       31.819805150000       0.707106780000       0.000000000000
        91    1       31.112698370000       0.707106780000       0.707106780000
        92    1       31.819805150000       0.000000000000       0.707106780000
        93    1       32.526911930000       0.000000000000       0.000000000000
        94    1       33.234018720000       0.707106780000       0.000000000000
        95    1       32.526911930000       0.707106780000       0.707106780000
        96    1       33.234018720000       0.000000000000       0.707106780000
        97    1       33.941125500000       0.000000000000       0.000000000000
        98    1       34.648232280000       0.707106780000       0.000000000000
        99    1       33.941125500000       0.707106780000       0.707106780000
       100    1       34.648232280000       0.000000000000       0.707106780000
       101    1       35.355339060000       0.000000000000       0.000000000000
       102    1       36.062445840000       0.707106780000       0.000000000000
       103    1       35.355339060000       0.707106780000       0.707106780000
       104    1       36.062445840000       0.000000000000       0.707106780000
       105    1       36.769552620000       0.000000000000       0.000000000000
       106    1       37.476659400000       0.707106780000       0.000000000000
       107    1       36.769552620000       0.707106780000       0.707106780000
       108    1       37.476659400000       0.000000000000       0.707106780000
       109    1       38.183766180000       0.000000000000       0.000000000000
       110    1       38.890872970000       0.707106780000       0.000000000000
       111    1       38.183766180000       0.707106780000       0.707106780000
       112    1       38.890872970000       0.000000000000       0.707106780000
       113    1       39.597979750000       0.000000000000       0.000000000000
       114    1       40.305086530000       0.707106780000       0.000000000000
       115    1       39.597979750000       0.707106780000       0.707106780000
       116    1       40.305086530000       0.000000000000       0.707106780000
       117    1       41.012193310000       0.000000000000       0.000000000000
       118    1       41.719300090000       0.707106780000       0.000000000000
       119    1       41.012193310000       0.707106780000       0.707106780000
       120    1       41.719300090000       0.000000000000       0.707106780000
       121    1        0.000000000000       1.414213560000       0.000000000000
       122    1        0.707106780000       2.121320340000       0.000000000000
       123    1        0.000000000000       2.121320340000       0.707106780000
       124    1        0.707106780000       1.414213560000       0.707106780000
       125    1        1.414213560000       1.414213560000       0.000000000000
       126    1        2.121320340000       2.121320340000       0.000000000000
       127    1        1.414213560000       2.121320340000       0.707106780000
       128    1        2.121320340000       1.414213560000       0.707106780000
       129    1        2.828427120000       1.414213560000       0.000000000000
       130    1        3.535533910000       2.121320340000       0.000000000000
       131    1        2.828427120000       2.121320340000       0.707106780000
       132    1        3.535533910000       1.414213560000       0.707106780000
       133    1        4.242640690000       1.414213560000       0.000000000000
       134    1        4.949747470000       2.121320340000       0.000000000000
       135    1        4.242640690000       2.121320340000       0.707106780000
       136    1        4.949747470000       1.414213560000       0.707106780000
       137    1        5.656854250000       1.414213560000       0.000000000000
       138    1        6.363961030000       2.121320340000       0.000000000000
       139    1        5.656854250000       2.121320340000       0.707106780000
       140    1        6.363961030000       1.414213560000       0.707106780000
       141    1        7.071067810000       1.414213560000       0.000000000000
       142    1        7.778174590000       2.121320340000       0.000000000000
       143    1        7.071067810000       2.121320340000       0.707106780000
       144    1        7.778174590000       1.414213560000       0.707106780000
       145    1        8.485281370000       1.414213560000       0.000000000000
       146    1        9.192388160000       2.121320340000       0.000000000000
       147    1        8.485281370000       2.121320340000       0.707106780000
       148    1        9.192388160000       1.414213560000       0.707106780000
       149    1        9.899494940000       1.414213560000       0.000000000000
       150    1       10.606601720000       2.121320340000       0.000000000000
       151    1        9.899494940000       2.121320340000       0.707106780000
       152    1       10.606601720000       1.414213560000       0.707106780000
       153    1       11.313708500000       1.414213560000       0.000000000000
       154    1       12.020815280000       2.121320340000       0.000000000000
       155    1       11.313708500000       2.121320340000       0.707106780000
       156    1       12.020815280000       1.414213560000       0.707106780000
       157    1       12.727922060000       1.414213560000       0.000000000000
       158    1       13.435028840000       2.121320340000       0.000000000000
       159    1       12.727922060000       2.121320340000       0.707106780000
       160    1       13.435028840000       1.414213560000       0.707106780000
       161    1       14.142135620000       1.414213560000       0.000000000000
       162    1       14.849242400000       1.414213560000       0.707106780000
       163    1       15.556349190000       1.414213560000       0.000000000000
       164    1       26.162950900000       1.414213560000       0.707106780000
       165    1       26.870057690000       1.414213560000       0.000000000000
       166    1       27.577164470000       1.414213560000       0.707106780000
       167    1       28.284271250000       1.414213560000       0.000000000000
       168    1       28.991378030000       2.121320340000       0.000000000000
       169    1       28.284271250000       2.121320340000       0.707106780000
       170    1       28.991378030000       1.414213560000       0.707106780000
       171    1       29.698484810000       1.414213560000       0.000000000000
       172    1       30.405591590000       2.121320340000       0.000000000000
       173    1       29.698484810000       2.121320340000       0.707106780000
       174    1       30.405591590000       1.414213560000       0.707106780000
       175    1       31.112698370000       1.414213560000       0.000000000000
       176    1       31.819805150000       2.121320340000       0.000000000000
       177    1       31.112698370000       2.121320340000       0.707106780000
       178    1       31.819805150000       1.414213560000       0.707106780000
       179    1       32.526911930000       1.414213560000       0.000000000000
       180    1       33.234018720000       2.121320340000       0.000000000000
       181    1       32.526911930000       2.121320340000       0.707106780000
       182    1       33.234018720000       1.414213560000       0.707106780000
       183    1       33.941125500000       1.414213560000       0.000000000000
       184    1       34.648232280000       2.121320340000       0.000000000000
       185    1       33.941125500000       2.121320340000       0.707106780000
       186    1       34.648232280000       1.414213560000       0.707106780000
       187    1       35.355339060000       1.414213560000       0.000000000000
       188    1       36.062445840000       2.121320340000       0.000000000000
       189    1       35.355339060000       2.121320340000       0.707106780000
       190    1       36.062445840000       1.414213560000       0.707106780000
       191    1       36.769552620000       1.414213560000       0.000000000000
       192    1       37.476659400000       2.121320340000       0.000000000000
       193    1       36.769552620000       2.121320340000       0.707106780000
       194    1       37.476659400000       1.414213560000       0.707106780000
       195    1       38.183766180000       1.414213560000       0.000000000000
       196    1       38.890872970000       2.121320340000       0.000000000000
       197    1       38.183766180000       2.121320340000       0.707106780000
       198    1       38.890872970000       1.414213560000       0.707106780000
       199    1       39.597979750000       1.414213560000       0.000000000000
       200    1       40.305086530000       2.121320340000       0.000000000000
       201    1       39.597979750000       2.121320340000       0.707106780000
       202    1       40.305086530000       1.414213560000       0.707106780000
       203    1       41.012193310000       1.414213560000       0.000000000000
       204    1       41.719300090000       2.121320340000       0.000000000000
       205    1       41.012193310000       2.121320340000       0.707106780000
       206    1       41.719300090000       1.414213560000       0.707106780000
       207    1        0.000000000000       2.828427120000       0.000000000000
       208    1        0.707106780000       3.535533910000       0.000000000000
       209    1        0.000000000000       3.535533910000       0.707106780000
       210    1        0.707106780000       2.828427120000       0.707106780000
       211    1        1.414213560000       2.828427120000       0.000000000000
       212    1        2.121320340000       3.535533910000       0.000000000000
       213    1        1.414213560000       3.535533910000       0.707106780000
       214    1        2.121320340000       2.828427120000       0.707106780000
       215    1        2.828427120000       2.828427120000       0.000000000000
       216    1        3.535533910000       3.535533910000       0.000000000000
       217    1        2.828427120000       3.535533910000       0.707106780000
       218    1        3.535533910000       2.828427120000       0.707106780000
       219    1        4.242640690000       2.828427120000       0.000000000000
       220    1        4.949747470000       3.535533910000       0.000000000000
       221    1        4.242640690000       3.535533910000       0.707106780000
       222    1        4.949747470000       2.828427120000       0.707106780000
       223    1        5.656854250000       2.828427120000       0.000000000000
       224    1        6.363961030000       3.535533910000       0.000000000000
       225    1        5.656854250000       3.535533910000       0.707106780000
       226    1        6.363961030000       2.828427120000       0.707106780000
       227    1        7.071067810000       2.828427120000       0.000000000000
       228    1        7.778174590000       3.535533910000       0.000000000000
       229    1        7.071067810000       3.535533910000       0.707106780000
       230    1        7.778174590000       2.828427120000       0.707106780000
       231    1        8.485281370000       2.828427120000       0.000000000000
       232    1        9.192388160000       3.535533910000       0.000000000000
       233    1        8.485281370000       3.535533910000       0.707106780000
       234    1        9.192388160000       2.828427120000       0.707106780000
       235    1        9.899494940000       2.828427120000       0.000000000000
       236    1       10.606601720000       3.535533910000       0.000000000000
       237    1        9.899494940000       3.535533910000       0.707106780000
       238    1       10.606601720000       2.828427120000       0.707106780000
       239    1       11.313708500000       2.828427120000       0.000000000000
       240    1       29.698484810000       2.828427120000       0.000000000000
       241    1       30.405591590000       2.828427120000       0.707106780000
       242    1       31.112698370000       2.828427120000       0.000000000000
       243    1       31.819805150000       3.535533910000       0.000000000000
       244    1       31.112698370000       3.535533910000       0.707106780000
       245    1       31.819805150000       2.828427120000       0.707106780000
       246    1       32.526911930000       2.828427120000       0.000000000000
       247    1       33.234018720000       3.535533910000       0.000000000000
       248    1       32.526911930000       3.535533910000       0.707106780000
       249    1       33.234018720000       2.828427120000       0.707106780000
       250    1       33.941125500000       2.828427120000       0.000000000000
       251    1       34.648232280000       3.535533910000       0.000000000000
       252    1       33.941125500000       3.535533910000       0.707106780000
       253    1       34.648232280000       2.828427120000       0.707106780000
       254    1       35.355339060000       2.828427120000       0.000000000000
       255    1       36.062445840000       3.535533910000       0.000000000000
       256    1       35.355339060000       3.535533910000       0.707106780000
       257    1       36.062445840000       2.828427120000       0.707106780000
       258    1       36.769552620000       2.828427120000       0.000000000000
       259    1       37.476659400000       3.535533910000       0.000000000000
       260    1       36.769552620000       3.535533910000       0.707106780000
       261    1       37.476659400000       2.828427120000       0.707106780000
       262    1       38.183766180000       2.828427120000       0.000000000000
       263    1       38.890872970000       3.535533910000       0.000000000000
       264    1       38.183766180000       3.535533910000       0.707106780000
       265    1       38.890872970000       2.828427120000       0.707106780000
       266    1       39.597979750000       2.828427120000       0.000000000000
       267    1       40.305086530000       3.535533910000       0.000000000000
       268    1       39.597979750000       3.535533910000       0.707106780000
       269    1       40.305086530000       2.828427120000       0.707106780000
       270    1       41.012193310000       2.828427120000       0.000000000000
       271    1       41.719300090000       3.535533910000       0.000000000000
       272    1       41.012193310000       3.535533910000       0.707106780000
       273    1       41.719300090000       2.828427120000       0.707106780000
       274    1        0.000000000000       4.242640690000       0.000000000000
       275    1        0.707106780000       4.949747470000       0.000000000000
       276    1        0.000000000000       4.949747470000       0.707106780000
       277    1        0.707106780000       4.242640690000       0.707106780000
       278    1        1.414213560000       4.242640690000       0.000000000000
       279    1        2.121320340000       4.949747470000       0.000000000000
       280    1        1.414213560000       4.949747470000       0.707106780000
       281    1        2.121320340000       4.242640690000       0.707106780000
       282    1        2.828427120000       4.242640690000       0.000000000000
       283    1        3.535533910000       4.949747470000       0.000000000000
       284    1        2.828427120000       4.949747470000       0.707106780000
       285    1        3.535533910000       4.242640690000       0.707106780000
       286    1        4.242640690000       4.242640690000       0.000000000000
       287    1        4.949747470000       4.949747470000       0.000000000000
       288    1        4.242640690000       4.949747470000       0.707106780000
       289    1        4.949747470000       4.242640690000       0.707106780000
       290    1        5.656854250000       4.242640690000       0.000000000000
       291    1        6.363961030000       4.949747470000       0.000000000000
       292    1        5.656854250000       4.949747470000       0.707106780000
       293    1        6.363961030000       4.242640690000       0.707106780000
       294    1        7.071067810000       4.242640690000       0.000000000000
       295    1        7.778174590000       4.949747470000       0.000000000000
       296    1        7.071067810000       4.949747470000       0.707106780000
       297    1        7.778174590000       4.242640690000       0.707106780000
       298    1        8.485281370000       4.242640690000       0.000000000000
       299    1        8.485281370000       4.949747470000       0.707106780000
       300    1        9.192388160000       4.242640690000       0.707106780000
       301    1       32.526911930000       4.242640690000       0.000000000000
       302    1       33.234018720000       4.949747470000       0.000000000000
       303    1       33.234018720000       4.242640690000       0.707106780000
       304    1       33.941125500000       4.242640690000       0.000000000000
       305    1       34.648232280000       4.949747470000       0.000000000000
       306    1       33.941125500000       4.949747470000       0.707106780000
       307    1       34.648232280000       4.242640690000       0.707106780000
       308    1       35.355339060000       4.242640690000       0.000000000000
       309    1       36.062445840000       4.949747470000       0.000000000000
       310    1       35.355339060000       4.949747470000       0.707106780000
       311    1       36.062445840000       4.242640690000       0.707106780000
       312    1       36.769552620000       4.242640690000       0.000000000000
       313    1       37.476659400000       4.949747470000       0.000000000000
       314    1       36.769552620000       4.949747470000       0.707106780000
       315    1       37.476659400000       4.242640690000       0.707106780000
       316    1       38.183766180000       4.242640690000       0.000000000000
       317    1       38.890872970000       4.949747470000       0.000000000000
       318    1       38.183766180000       4.949747470000       0.707106780000
       319    1       38.890872970000       4.242640690000       0.707106780000
       320    1       39.597979750000       4.242640690000       0.000000000000
       321    1       40.305086530000       4.949747470000       0.000000000000
       322    1       39.597979750000       4.949747470000       0.707106780000
       323    1       40.305086530000       4.242640690000       0.707106780000
       324    1       41.012193310000       4.242640690000       0.000000000000
       325    1       41.719300090000       4.949747470000       0.000000000000
       326    1       41.012193310000       4.949747470000       0.707106780000
       327    1       41.719300090000       4.242640690000       0.707106780000
       328    1        0.000000000000       5.656854250000       0.000000000000
       329    1        0.707106780000       6.363961030000       0.000000000000
       330    1        0.000000000000       6.363961030000       0.707106780000
       331    1        0.707106780000       5.656854250000       0.707106780000
       332    1        1.414213560000       5.656854250000       0.000000000000
       333    1        2.121320340000       6.363961030000       0.000000000000
       334    1        1.414213560000       6.363961030000       0.707106780000
       335    1        2.121320340000       5.656854250000       0.707106780000
       336    1        2.828427120000       5.656854250000       0.000000000000
       337    1        3.535533910000       6.363961030000       0.000000000000
       338    1        2.828427120000       6.363961030000       0.707106780000
       339    1        3.535533910000       5.656854250000       0.707106780000
       340    1        4.242640690000       5.656854250000       0.000000000000
       341    1        4.949747470000       6.363961030000       0.000000000000
       342    1        4.242640690000       6.363961030000       0.707106780000
       343    1        4.949747470000       5.656854250000       0.707106780000
       344    1        5.656854250000       5.656854250000       0.000000000000
       345    1        6.363961030000       6.363961030000       0.000000000000
       346    1        5.656854250000       6.363961030000       0.707106780000
       347    1        6.363961030000       5.656854250000       0.707106780000
       348    1        7.071067810000       5.656854250000       0.000000000000
       349    1       33.941125500000       5.656854250000       0.000000000000
       350    1       34.648232280000       6.363961030000       0.000000000000
       351    1       34.648232280000       5.656854250000       0.707106780000
       352    1       35.355339060000       5.656854250000       0.000000000000
       353    1       36.062445840000       6.363961030000       0.000000000000
       354    1       35.355339060000       6.363961030000       0.707106780000
       355    1       36.062445840000       5.656854250000       0.707106780000
       356    1       36.769552620000       5.656854250000       0.000000000000
       357    1       37.476659400000       6.363961030000       0.000000000000
       358    1       36.769552620000       6.363961030000       0.707106780000
       359    1       37.476659400000       5.656854250000       0.707106780000
       360    1       38.183766180000       5.656854250000       0.000000000000
       361    1       38.890872970000       6.363961030000       0.000000000000
       362    1       38.183766180000       6.363961030000       0.707106780000
       363    1       38.890872970000       5.656854250000       0.707106780000
       364    1       39.597979750000       5.656854250000       0.000000000000
       365    1       40.305086530000       6.363961030000       0.000000000000
       366    1       39.597979750000       6.363961030000       0.707106780000
       367    1       40.305086530000       5.656854250000       0.707106780000
       368    1       41.012193310000       5.656854250000       0.000000000000
       369    1       41.719300090000       6.363961030000       0.000000000000
       370    1       41.012193310000       6.363961030000       0.707106780000