lammps data file written by polyGraft 

7160 atoms
28295 bonds
0 angles
0 dihedrals
0 impropers

3 atom types
5 bond types
0 angle types
0 dihedral types
0 improper types

0.000 41.719 xlo xhi
0.000 41.719 ylo yhi
0.000 6.364 zlo zhi

Atoms

1 1 1 38.362 21.185 0.000
2 1 1 37.362 21.174 0.000
3 1 1 36.362 21.163 0.000
4 1 1 35.363 21.152 0.000
5 1 1 34.363 21.141 0.000
6 1 1 33.363 21.130 0.000
7 1 1 32.363 21.120 0.000
8 1 1 31.363 21.109 0.000
9 1 1 30.363 21.098 0.000
10 1 1 29.363 21.087 0.000
11 1 1 28.363 21.076 0.000
12 1 1 27.363 21.065 0.000
13 2 1 38.362 21.185 2.828
14 2 1 37.362 21.174 2.828
15 2 1 36.362 21.163 2.828
16 2 1 35.363 21.152 2.828
17 2 1 34.363 21.141 2.828
18 2 1 33.363 21.130 2.828
19 2 1 32.363 21.120 2.828
20 2 1 31.363 21.109 2.828
21 2 1 30.363 21.098 2.828
22 2 1 29.363 21.087 2.828
23 2 1 28.363 21.076 2.828
24 2 1 27.363 21.065 2.828
25 3 2 38.363 20.571 4.950
26 3 2 37.363 20.595 4.950
27 3 2 36.364 20.620 4.950
28 3 2 35.364 20.644 4.950
29 3 2 34.364 20.669 4.950
30 3 2 33.364 20.693 4.950
31 4 1 38.380 23.027 0.707
32 4 1 37.387 22.911 0.707
33 4 1 36.394 22.795 0.707
34 4 1 35.400 22.679 0.707
35 4 1 34.407 22.563 0.707
36 4 1 33.414 22.447 0.707
37 4 1 32.421 22.331 0.707
38 4 1 31.427 22.215 0.707
39 4 1 30.434 22.099 0.707
40 4 1 29.441 21.983 0.707
41 4 1 28.448 21.867 0.707
42 4 1 27.454 21.751 0.707
43 5 1 38.380 23.027 2.121
44 5 1 37.387 22.911 2.121
45 5 1 36.394 22.795 2.121
46 5 1 35.400 22.679 2.121
47 5 1 34.407 22.563 2.121
48 5 1 33.414 22.447 2.121
49 5 1 32.421 22.331 2.121
50 5 1 31.427 22.215 2.121
51 5 1 30.434 22.099 2.121
52 5 1 29.441 21.983 2.121
53 5 1 28.448 21.867 2.121
54 5 1 27.454 21.751 2.121
55 6 2 38.380 23.027 4.950
56 6 2 37.387 22.911 4.950
57 6 2 36.394 22.795 4.950
58 6 2 35.400 22.679 4.950
59 6 2 34.407 22.563 4.950
60 6 2 33.414 22.447 4.950
61 7 1 37.723 24.860 0.707
62 7 1 36.749 24.634 0.707
63 7 1 35.774 24.409 0.707
64 7 1 34.800 24.184 0.707
65 7 1 33.826 23.959 0.707
66 7 1 32.851 23.734 0.707
67 7 1 31.877 23.509 0.707
68 7 1 30.903 23.284 0.707
69 7 1 29.928 23.059 0.707
70 7 1 28.954 22.834 0.707
71 7 1 27.980 22.609 0.707
72 7 1 27.005 22.384 0.707
73 8 1 37.723 24.860 2.121
74 8 1 36.749 24.634 2.121
75 8 1 35.774 24.409 2.121
76 8 1 34.800 24.184 2.121
77 8 1 33.826 23.959 2.121
78 8 1 32.851 23.734 2.121
79 8 1 31.877 23.509 2.121
80 8 1 30.903 23.284 2.121
81 8 1 29.928 23.059 2.121
82 8 1 28.954 22.834 2.121
83 8 1 27.980 22.609 2.121
84 8 1 27.005 22.384 2.121
85 9 2 37.723 24.860 4.950
86 9 2 36.749 24.634 4.950
87 9 2 35.774 24.409 4.950
88 9 2 34.800 24.184 4.950
89 9 2 33.826 23.959 4.950
90 9 2 32.851 23.734 4.950
91 10 1 37.797 26.722 0.000
92 10 1 36.850 26.400 0.000
93 10 1 35.904 26.077 0.000
94 10 1 34.957 25.754 0.000
95 10 1 34.011 25.432 0.000
96 10 1 33.064 25.109 0.000
97 10 1 32.118 24.787 0.000
98 10 1 31.171 24.464 0.000
99 10 1 30.224 24.142 0.000
100 10 1 29.278 23.819 0.000
101 10 1 28.331 23.496 0.000
102 10 1 27.385 23.174 0.000
103 11 1 37.797 26.722 2.828
104 11 1 36.850 26.400 2.828
105 11 1 35.904 26.077 2.828
106 11 1 34.957 25.754 2.828
107 11 1 34.011 25.432 2.828
108 11 1 33.064 25.109 2.828
109 11 1 32.118 24.787 2.828
110 11 1 31.171 24.464 2.828
111 11 1 30.224 24.142 2.828
112 11 1 29.278 23.819 2.828
113 11 1 28.331 23.496 2.828
114 11 1 27.385 23.174 2.828
115 12 2 37.797 26.722 4.243
116 12 2 36.850 26.400 4.243
117 12 2 35.904 26.077 4.243
118 12 2 34.957 25.754 4.243
119 12 2 34.011 25.432 4.243
120 12 2 33.064 25.109 4.243
121 13 1 36.508 28.540 0.707
122 13 1 35.608 28.102 0.707
123 13 1 34.709 27.665 0.707
124 13 1 33.810 27.228 0.707
125 13 1 32.911 26.790 0.707
126 13 1 32.011 26.353 0.707
127 13 1 31.112 25.916 0.707
128 13 1 30.213 25.478 0.707
129 13 1 29.313 25.041 0.707
130 13 1 28.414 24.604 0.707
131 13 1 27.515 24.166 0.707
132 13 1 26.615 23.729 0.707
133 14 1 36.508 28.540 2.121
134 14 1 35.608 28.102 2.121
135 14 1 34.709 27.665 2.121
136 14 1 33.810 27.228 2.121
137 14 1 32.911 26.790 2.121
138 14 1 32.011 26.353 2.121
139 14 1 31.112 25.916 2.121
140 14 1 30.213 25.478 2.121
141 14 1 29.313 25.041 2.121
142 14 1 28.414 24.604 2.121
143 14 1 27.515 24.166 2.121
144 14 1 26.615 23.729 2.121
145 15 2 36.508 28.540 4.950
146 15 2 35.608 28.102 4.950
147 15 2 34.709 27.665 4.950
148 15 2 33.810 27.228 4.950
149 15 2 32.911 26.790 4.950
150 15 2 32.011 26.353 4.950
151 16 1 35.941 30.408 0.707
152 16 1 35.095 29.875 0.707
153 16 1 34.249 29.342 0.707
154 16 1 33.403 28.809 0.707
155 16 1 32.557 28.276 0.707
156 16 1 31.710 27.743 0.707
157 16 1 30.864 27.210 0.707
158 16 1 30.018 26.678 0.707
159 16 1 29.172 26.145 0.707
160 16 1 28.326 25.612 0.707
161 16 1 27.479 25.079 0.707
162 16 1 26.633 24.546 0.707
163 17 1 35.941 30.408 2.121
164 17 1 35.095 29.875 2.121
165 17 1 34.249 29.342 2.121
166 17 1 33.403 28.809 2.121
167 17 1 32.557 28.276 2.121
168 17 1 31.710 27.743 2.121
169 17 1 30.864 27.210 2.121
170 17 1 30.018 26.678 2.121
171 17 1 29.172 26.145 2.121
172 17 1 28.326 25.612 2.121
173 17 1 27.479 25.079 2.121
174 17 1 26.633 24.546 2.121
175 18 2 35.941 30.408 4.950
176 18 2 35.095 29.875 4.950
177 18 2 34.249 29.342 4.950
178 18 2 33.403 28.809 4.950
179 18 2 32.557 28.276 4.950
180 18 2 31.710 27.743 4.950
181 19 1 34.676 31.610 0.707
182 19 1 33.886 30.997 0.707
183 19 1 33.096 30.384 0.707
184 19 1 32.306 29.771 0.707
185 19 1 31.515 29.158 0.707
186 19 1 30.725 28.545 0.707
187 19 1 29.935 27.932 0.707
188 19 1 29.145 27.319 0.707
189 19 1 28.355 26.706 0.707
190 19 1 27.565 26.093 0.707
191 19 1 26.775 25.480 0.707
192 19 1 25.985 24.867 0.707
193 20 1 34.676 31.610 2.121
194 20 1 33.886 30.997 2.121
195 20 1 33.096 30.384 2.121
196 20 1 32.306 29.771 2.121
197 20 1 31.515 29.158 2.121
198 20 1 30.725 28.545 2.121
199 20 1 29.935 27.932 2.121
200 20 1 29.145 27.319 2.121
201 20 1 28.355 26.706 2.121
202 20 1 27.565 26.093 2.121
203 20 1 26.775 25.480 2.121
204 20 1 25.985 24.867 2.121
205 21 2 34.676 31.610 4.950
206 21 2 33.886 30.997 4.950
207 21 2 33.096 30.384 4.950
208 21 2 32.306 29.771 4.950
209 21 2 31.515 29.158 4.950
210 21 2 30.725 28.545 4.950
211 22 1 33.482 33.482 0.000
212 22 1 32.774 32.774 0.000
213 22 1 32.067 32.067 0.000
214 22 1 31.360 31.360 0.000
215 22 1 30.653 30.653 0.000
216 22 1 29.946 29.946 0.000
217 22 1 29.239 29.239 0.000
218 22 1 28.532 28.532 0.000
219 22 1 27.825 27.825 0.000
220 22 1 27.118 27.118 0.000
221 22 1 26.410 26.410 0.000
222 22 1 25.703 25.703 0.000
223 23 1 33.482 33.482 2.828
224 23 1 32.774 32.774 2.828
225 23 1 32.067 32.067 2.828
226 23 1 31.360 31.360 2.828
227 23 1 30.653 30.653 2.828
228 23 1 29.946 29.946 2.828
229 23 1 29.239 29.239 2.828
230 23 1 28.532 28.532 2.828
231 23 1 27.825 27.825 2.828
232 23 1 27.118 27.118 2.828
233 23 1 26.410 26.410 2.828
234 23 1 25.703 25.703 2.828
235 24 2 33.435 32.822 4.950
236 24 2 32.710 32.133 4.950
237 24 2 31.985 31.444 4.950
238 24 2 31.261 30.755 4.950
239 24 2 30.536 30.066 4.950
240 24 2 29.811 29.377 4.950
241 25 1 31.610 34.676 0.707
242 25 1 30.997 33.886 0.707
243 25 1 30.384 33.096 0.707
244 25 1 29.771 32.306 0.707
245 25 1 29.158 31.515 0.707
246 25 1 28.545 30.725 0.707
247 25 1 27.932 29.935 0.707
248 25 1 27.319 29.145 0.707
249 25 1 26.706 28.355 0.707
250 25 1 26.093 27.565 0.707
251 25 1 25.480 26.775 0.707
252 25 1 24.867 25.985 0.707
253 26 1 31.610 34.676 2.121
254 26 1 30.997 33.886 2.121
255 26 1 30.384 33.096 2.121
256 26 1 29.771 32.306 2.121
257 26 1 29.158 31.515 2.121
258 26 1 28.545 30.725 2.121
259 26 1 27.932 29.935 2.121
260 26 1 27.319 29.145 2.121
261 26 1 26.706 28.355 2.121
262 26 1 26.093 27.565 2.121
263 26 1 25.480 26.775 2.121
264 26 1 24.867 25.985 2.121
265 27 2 31.610 34.676 4.950
266 27 2 30.997 33.886 4.950
267 27 2 30.384 33.096 4.950
268 27 2 29.771 32.306 4.950
269 27 2 29.158 31.515 4.950
270 27 2 28.545 30.725 4.950
271 28 1 30.408 35.941 0.707
272 28 1 29.875 35.095 0.707
273 28 1 29.342 34.249 0.707
274 28 1 28.809 33.403 0.707
275 28 1 28.276 32.557 0.707
276 28 1 27.743 31.710 0.707
277 28 1 27.210 30.864 0.707
278 28 1 26.678 30.018 0.707
279 28 1 26.145 29.172 0.707
280 28 1 25.612 28.326 0.707
281 28 1 25.079 27.479 0.707
282 28 1 24.546 26.633 0.707
283 29 1 30.408 35.941 2.121
284 29 1 29.875 35.095 2.121
285 29 1 29.342 34.249 2.121
286 29 1 28.809 33.403 2.121
287 29 1 28.276 32.557 2.121
288 29 1 27.743 31.710 2.121
289 29 1 27.210 30.864 2.121
290 29 1 26.678 30.018 2.121
291 29 1 26.145 29.172 2.121
292 29 1 25.612 28.326 2.121
293 29 1 25.079 27.479 2.121
294 29 1 24.546 26.633 2.121
295 30 2 30.408 35.941 4.950
296 30 2 29.875 35.095 4.950
297 30 2 29.342 34.249 4.950
298 30 2 28.809 33.403 4.950
299 30 2 28.276 32.557 4.950
300 30 2 27.743 31.710 4.950
301 31 1 28.540 36.508 0.707
302 31 1 28.102 35.608 0.707
303 31 1 27.665 34.709 0.707
304 31 1 27.228 33.810 0.707
305 31 1 26.790 32.911 0.707
306 31 1 26.353 32.011 0.707
307 31 1 25.916 31.112 0.707
308 31 1 25.478 30.213 0.707
309 31 1 25.041 29.313 0.707
310 31 1 24.604 28.414 0.707
311 31 1 24.166 27.515 0.707
312 31 1 23.729 26.615 0.707
313 32 1 28.540 36.508 2.121
314 32 1 28.102 35.608 2.121
315 32 1 27.665 34.709 2.121
316 32 1 27.228 33.810 2.121
317 32 1 26.790 32.911 2.121
318 32 1 26.353 32.011 2.121
319 32 1 25.916 31.112 2.121
320 32 1 25.478 30.213 2.121
321 32 1 25.041 29.313 2.121
322 32 1 24.604 28.414 2.121
323 32 1 24.166 27.515 2.121
324 32 1 23.729 26.615 2.121
325 33 2 28.540 36.508 4.950
326 33 2 28.102 35.608 4.950
327 33 2 27.665 34.709 4.950
328 33 2 27.228 33.810 4.950
329 33 2 26.790 32.911 4.950
330 33 2 26.353 32.011 4.950
331 34 1 26.722 37.797 0.000
332 34 1 26.400 36.850 0.000
333 34 1 26.077 35.904 0.000
334 34 1 25.754 34.957 0.000
335 34 1 25.432 34.011 0.000
336 34 1 25.109 33.064 0.000
337 34 1 24.787 32.118 0.000
338 34 1 24.464 31.171 0.000
339 34 1 24.142 30.224 0.000
340 34 1 23.819 29.278 0.000
341 34 1 23.496 28.331 0.000
342 34 1 23.174 27.385 0.000
343 35 1 26.722 37.797 2.828
344 35 1 26.400 36.850 2.828
345 35 1 26.077 35.904 2.828
346 35 1 25.754 34.957 2.828
347 35 1 25.432 34.011 2.828
348 35 1 25.109 33.064 2.828
349 35 1 24.787 32.118 2.828
350 35 1 24.464 31.171 2.828
351 35 1 24.142 30.224 2.828
352 35 1 23.819 29.278 2.828
353 35 1 23.496 28.331 2.828
354 35 1 23.174 27.385 2.828
355 36 2 26.722 37.797 4.243
356 36 2 26.400 36.850 4.243
357 36 2 26.077 35.904 4.243
358 36 2 25.754 34.957 4.243
359 36 2 25.432 34.011 4.243
360 36 2 25.109 33.064 4.243
361 37 1 24.860 37.723 0.707
362 37 1 24.634 36.749 0.707
363 37 1 24.409 35.774 0.707
364 37 1 24.184 34.800 0.707
365 37 1 23.959 33.826 0.707
366 37 1 23.734 32.851 0.707
367 37 1 23.509 31.877 0.707
368 37 1 23.284 30.903 0.707
369 37 1 23.059 29.928 0.707
370 37 1 22.834 28.954 0.707
371 37 1 22.609 27.980 0.707
372 37 1 22.384 27.005 0.707
373 38 1 24.860 37.723 2.121
374 38 1 24.634 36.749 2.121
375 38 1 24.409 35.774 2.121
376 38 1 24.184 34.800 2.121
377 38 1 23.959 33.826 2.121
378 38 1 23.734 32.851 2.121
379 38 1 23.509 31.877 2.121
380 38 1 23.284 30.903 2.121
381 38 1 23.059 29.928 2.121
382 38 1 22.834 28.954 2.121
383 38 1 22.609 27.980 2.121
384 38 1 22.384 27.005 2.121
385 39 2 24.860 37.723 4.950
386 39 2 24.634 36.749 4.950
387 39 2 24.409 35.774 4.950
388 39 2 24.184 34.800 4.950
389 39 2 23.959 33.826 4.950
390 39 2 23.734 32.851 4.950
391 40 1 23.027 38.380 0.707
392 40 1 22.911 37.387 0.707
393 40 1 22.795 36.394 0.707
394 40 1 22.679 35.400 0.707
395 40 1 22.563 34.407 0.707
396 40 1 22.447 33.414 0.707
397 40 1 22.331 32.421 0.707
398 40 1 22.215 31.427 0.707
399 40 1 22.099 30.434 0.707
400 40 1 21.983 29.441 0.707
401 40 1 21.867 28.448 0.707
402 40 1 21.751 27.454 0.707
403 41 1 23.027 38.380 2.121
404 41 1 22.911 37.387 2.121
405 41 1 22.795 36.394 2.121
406 41 1 22.679 35.400 2.121
407 41 1 22.563 34.407 2.121
408 41 1 22.447 33.414 2.121
409 41 1 22.331 32.421 2.121
410 41 1 22.215 31.427 2.121
411 41 1 22.099 30.434 2.121
412 41 1 21.983 29.441 2.121
413 41 1 21.867 28.448 2.121
414 41 1 21.751 27.454 2.121
415 42 2 23.027 38.380 4.950
416 42 2 22.911 37.387 4.950
417 42 2 22.795 36.394 4.950
418 42 2 22.679 35.400 4.950
419 42 2 22.563 34.407 4.950
420 42 2 22.447 33.414 4.950
421 43 1 21.185 38.362 0.000
422 43 1 21.174 37.362 0.000
423 43 1 21.163 36.362 0.000
424 43 1 21.152 35.363 0.000
425 43 1 21.141 34.363 0.000
426 43 1 21.130 33.363 0.000
427 43 1 21.120 32.363 0.000
428 43 1 21.109 31.363 0.000
429 43 1 21.098 30.363 0.000
430 43 1 21.087 29.363 0.000
431 43 1 21.076 28.363 0.000
432 43 1 21.065 27.363 0.000
433 44 1 21.185 38.362 2.828
434 44 1 21.174 37.362 2.828
435 44 1 21.163 36.362 2.828
436 44 1 21.152 35.363 2.828
437 44 1 21.141 34.363 2.828
438 44 1 21.130 33.363 2.828
439 44 1 21.120 32.363 2.828
440 44 1 21.109 31.363 2.828
441 44 1 21.098 30.363 2.828
442 44 1 21.087 29.363 2.828
443 44 1 21.076 28.363 2.828
444 44 1 21.065 27.363 2.828
445 45 2 20.571 38.363 4.950
446 45 2 20.595 37.363 4.950
447 45 2 20.620 36.364 4.950
448 45 2 20.644 35.364 4.950
449 45 2 20.669 34.364 4.950
450 45 2 20.693 33.364 4.950
451 46 1 18.728 38.384 0.000
452 46 1 18.857 37.393 0.000
453 46 1 18.986 36.401 0.000
454 46 1 19.116 35.410 0.000
455 46 1 19.245 34.418 0.000
456 46 1 19.375 33.426 0.000
457 46 1 19.504 32.435 0.000
458 46 1 19.633 31.443 0.000
459 46 1 19.763 30.452 0.000
460 46 1 19.892 29.460 0.000
461 46 1 20.021 28.469 0.000
462 46 1 20.151 27.477 0.000
463 47 1 18.728 38.384 2.828
464 47 1 18.857 37.393 2.828
465 47 1 18.986 36.401 2.828
466 47 1 19.116 35.410 2.828
467 47 1 19.245 34.418 2.828
468 47 1 19.375 33.426 2.828
469 47 1 19.504 32.435 2.828
470 47 1 19.633 31.443 2.828
471 47 1 19.763 30.452 2.828
472 47 1 19.892 29.460 2.828
473 47 1 20.021 28.469 2.828
474 47 1 20.151 27.477 2.828
475 48 2 19.343 38.374 4.950
476 48 2 19.438 37.379 4.950
477 48 2 19.532 36.383 4.950
478 48 2 19.627 35.388 4.950
479 48 2 19.722 34.392 4.950
480 48 2 19.817 33.397 4.950
481 49 1 16.894 37.731 0.000
482 49 1 17.132 36.760 0.000
483 49 1 17.370 35.789 0.000
484 49 1 17.609 34.818 0.000
485 49 1 17.847 33.846 0.000
486 49 1 18.085 32.875 0.000
487 49 1 18.323 31.904 0.000
488 49 1 18.561 30.933 0.000
489 49 1 18.799 29.961 0.000
490 49 1 19.037 28.990 0.000
491 49 1 19.275 28.019 0.000
492 49 1 19.513 27.048 0.000
493 50 1 16.894 37.731 2.828
494 50 1 17.132 36.760 2.828
495 50 1 17.370 35.789 2.828
496 50 1 17.609 34.818 2.828
497 50 1 17.847 33.846 2.828
498 50 1 18.085 32.875 2.828
499 50 1 18.323 31.904 2.828
500 50 1 18.561 30.933 2.828
501 50 1 18.799 29.961 2.828
502 50 1 19.037 28.990 2.828
503 50 1 19.275 28.019 2.828
504 50 1 19.513 27.048 2.828
505 51 2 16.873 38.433 4.950
506 51 2 17.103 37.460 4.950
507 51 2 17.333 36.487 4.950
508 51 2 17.564 35.514 4.950
509 51 2 17.794 34.541 4.950
510 51 2 18.024 33.567 4.950
511 52 1 15.029 37.808 0.707
512 52 1 15.363 36.865 0.707
513 52 1 15.698 35.923 0.707
514 52 1 16.032 34.981 0.707
515 52 1 16.367 34.038 0.707
516 52 1 16.701 33.096 0.707
517 52 1 17.036 32.153 0.707
518 52 1 17.370 31.211 0.707
519 52 1 17.705 30.269 0.707
520 52 1 18.039 29.326 0.707
521 52 1 18.374 28.384 0.707
522 52 1 18.709 27.442 0.707
523 53 1 15.029 37.808 2.121
524 53 1 15.363 36.865 2.121
525 53 1 15.698 35.923 2.121
526 53 1 16.032 34.981 2.121
527 53 1 16.367 34.038 2.121
528 53 1 16.701 33.096 2.121
529 53 1 17.036 32.153 2.121
530 53 1 17.370 31.211 2.121
531 53 1 17.705 30.269 2.121
532 53 1 18.039 29.326 2.121
533 53 1 18.374 28.384 2.121
534 53 1 18.709 27.442 2.121
535 54 2 15.029 37.808 4.950
536 54 2 15.363 36.865 4.950
537 54 2 15.698 35.923 4.950
538 54 2 16.032 34.981 4.950
539 54 2 16.367 34.038 4.950
540 54 2 16.701 33.096 4.950
541 55 1 13.209 36.522 0.000
542 55 1 13.657 35.628 0.000
543 55 1 14.106 34.734 0.000
544 55 1 14.554 33.841 0.000
545 55 1 15.002 32.947 0.000
546 55 1 15.451 32.053 0.000
547 55 1 15.899 31.159 0.000
548 55 1 16.347 30.265 0.000
549 55 1 16.796 29.371 0.000
550 55 1 17.244 28.477 0.000
551 55 1 17.692 27.584 0.000
552 55 1 18.141 26.690 0.000
553 56 1 13.209 36.522 2.828
554 56 1 13.657 35.628 2.828
555 56 1 14.106 34.734 2.828
556 56 1 14.554 33.841 2.828
557 56 1 15.002 32.947 2.828
558 56 1 15.451 32.053 2.828
559 56 1 15.899 31.159 2.828
560 56 1 16.347 30.265 2.828
561 56 1 16.796 29.371 2.828
562 56 1 17.244 28.477 2.828
563 56 1 17.692 27.584 2.828
564 56 1 18.141 26.690 2.828
565 57 2 13.209 36.522 4.243
566 57 2 13.657 35.628 4.243
567 57 2 14.106 34.734 4.243
568 57 2 14.554 33.841 4.243
569 57 2 15.002 32.947 4.243
570 57 2 15.451 32.053 4.243
571 58 1 11.978 35.916 0.707
572 58 1 12.495 35.060 0.707
573 58 1 13.012 34.204 0.707
574 58 1 13.530 33.349 0.707
575 58 1 14.047 32.493 0.707
576 58 1 14.564 31.637 0.707
577 58 1 15.081 30.781 0.707
578 58 1 15.599 29.925 0.707
579 58 1 16.116 29.070 0.707
580 58 1 16.633 28.214 0.707
581 58 1 17.151 27.358 0.707
582 58 1 17.668 26.502 0.707
583 59 1 11.978 35.916 2.121
584 59 1 12.495 35.060 2.121
585 59 1 13.012 34.204 2.121
586 59 1 13.530 33.349 2.121
587 59 1 14.047 32.493 2.121
588 59 1 14.564 31.637 2.121
589 59 1 15.081 30.781 2.121
590 59 1 15.599 29.925 2.121
591 59 1 16.116 29.070 2.121
592 59 1 16.633 28.214 2.121
593 59 1 17.151 27.358 2.121
594 59 1 17.668 26.502 2.121
595 60 2 11.978 35.916 4.950
596 60 2 12.495 35.060 4.950
597 60 2 13.012 34.204 4.950
598 60 2 13.530 33.349 4.950
599 60 2 14.047 32.493 4.950
600 60 2 14.564 31.637 4.950
601 61 1 10.132 34.693 0.000
602 61 1 10.754 33.910 0.000
603 61 1 11.375 33.126 0.000
604 61 1 11.996 32.343 0.000
605 61 1 12.618 31.560 0.000
606 61 1 13.239 30.776 0.000
607 61 1 13.861 29.993 0.000
608 61 1 14.482 29.209 0.000
609 61 1 15.104 28.426 0.000
610 61 1 15.725 27.642 0.000
611 61 1 16.346 26.859 0.000
612 61 1 16.968 26.075 0.000
613 62 1 10.132 34.693 2.828
614 62 1 10.754 33.910 2.828
615 62 1 11.375 33.126 2.828
616 62 1 11.996 32.343 2.828
617 62 1 12.618 31.560 2.828
618 62 1 13.239 30.776 2.828
619 62 1 13.861 29.993 2.828
620 62 1 14.482 29.209 2.828
621 62 1 15.104 28.426 2.828
622 62 1 15.725 27.642 2.828
623 62 1 16.346 26.859 2.828
624 62 1 16.968 26.075 2.828
625 63 2 10.132 34.693 4.243
626 63 2 10.754 33.910 4.243
627 63 2 11.375 33.126 4.243
628 63 2 11.996 32.343 4.243
629 63 2 12.618 31.560 4.243
630 63 2 13.239 30.776 4.243
631 64 1 8.916 33.453 0.000
632 64 1 9.612 32.735 0.000
633 64 1 10.308 32.017 0.000
634 64 1 11.005 31.299 0.000
635 64 1 11.701 30.582 0.000
636 64 1 12.397 29.864 0.000
637 64 1 13.093 29.146 0.000
638 64 1 13.789 28.428 0.000
639 64 1 14.485 27.710 0.000
640 64 1 15.182 26.992 0.000
641 64 1 15.878 26.274 0.000
642 64 1 16.574 25.557 0.000
643 65 1 8.916 33.453 2.828
644 65 1 9.612 32.735 2.828
645 65 1 10.308 32.017 2.828
646 65 1 11.005 31.299 2.828
647 65 1 11.701 30.582 2.828
648 65 1 12.397 29.864 2.828
649 65 1 13.093 29.146 2.828
650 65 1 13.789 28.428 2.828
651 65 1 14.485 27.710 2.828
652 65 1 15.182 26.992 2.828
653 65 1 15.878 26.274 2.828
654 65 1 16.574 25.557 2.828
655 66 2 8.255 33.499 4.950
656 66 2 8.969 32.799 4.950
657 66 2 9.683 32.098 4.950
658 66 2 10.397 31.398 4.950
659 66 2 11.110 30.698 4.950
660 66 2 11.824 29.997 4.950
661 67 1 7.057 31.627 0.000
662 67 1 7.852 31.021 0.000
663 67 1 8.647 30.414 0.000
664 67 1 9.442 29.808 0.000
665 67 1 10.238 29.201 0.000
666 67 1 11.033 28.595 0.000
667 67 1 11.828 27.989 0.000
668 67 1 12.623 27.382 0.000
669 67 1 13.418 26.776 0.000
670 67 1 14.213 26.169 0.000
671 67 1 15.008 25.563 0.000
672 67 1 15.804 24.957 0.000
673 68 1 7.057 31.627 2.828
674 68 1 7.852 31.021 2.828
675 68 1 8.647 30.414 2.828
676 68 1 9.442 29.808 2.828
677 68 1 10.238 29.201 2.828
678 68 1 11.033 28.595 2.828
679 68 1 11.828 27.989 2.828
680 68 1 12.623 27.382 2.828
681 68 1 13.418 26.776 2.828
682 68 1 14.213 26.169 2.828
683 68 1 15.008 25.563 2.828
684 68 1 15.804 24.957 2.828
685 69 2 7.012 32.277 4.950
686 69 2 7.791 31.649 4.950
687 69 2 8.569 31.022 4.950
688 69 2 9.347 30.394 4.950
689 69 2 10.126 29.766 4.950
690 69 2 10.904 29.138 4.950
691 70 1 5.788 30.424 0.000
692 70 1 6.638 29.897 0.000
693 70 1 7.488 29.370 0.000
694 70 1 8.338 28.843 0.000
695 70 1 9.188 28.316 0.000
696 70 1 10.038 27.789 0.000
697 70 1 10.888 27.262 0.000
698 70 1 11.738 26.736 0.000
699 70 1 12.588 26.209 0.000
700 70 1 13.438 25.682 0.000
701 70 1 14.287 25.155 0.000
702 70 1 15.137 24.628 0.000
703 71 1 5.788 30.424 2.828
704 71 1 6.638 29.897 2.828
705 71 1 7.488 29.370 2.828
706 71 1 8.338 28.843 2.828
707 71 1 9.188 28.316 2.828
708 71 1 10.038 27.789 2.828
709 71 1 10.888 27.262 2.828
710 71 1 11.738 26.736 2.828
711 71 1 12.588 26.209 2.828
712 71 1 13.438 25.682 2.828
713 71 1 14.287 25.155 2.828
714 71 1 15.137 24.628 2.828
715 72 2 5.828 29.784 4.950
716 72 2 6.694 29.283 4.950
717 72 2 7.559 28.782 4.950
718 72 2 8.424 28.280 4.950
719 72 2 9.290 27.779 4.950
720 72 2 10.155 27.278 4.950
721 73 1 5.218 28.554 0.000
722 73 1 6.120 28.122 0.000
723 73 1 7.022 27.690 0.000
724 73 1 7.924 27.258 0.000
725 73 1 8.826 26.826 0.000
726 73 1 9.728 26.394 0.000
727 73 1 10.630 25.962 0.000
728 73 1 11.532 25.530 0.000
729 73 1 12.433 25.098 0.000
730 73 1 13.335 24.666 0.000
731 73 1 14.237 24.234 0.000
732 73 1 15.139 23.802 0.000
733 74 1 5.218 28.554 2.828
734 74 1 6.120 28.122 2.828
735 74 1 7.022 27.690 2.828
736 74 1 7.924 27.258 2.828
737 74 1 8.826 26.826 2.828
738 74 1 9.728 26.394 2.828
739 74 1 10.630 25.962 2.828
740 74 1 11.532 25.530 2.828
741 74 1 12.433 25.098 2.828
742 74 1 13.335 24.666 2.828
743 74 1 14.237 24.234 2.828
744 74 1 15.139 23.802 2.828
745 75 2 5.218 28.554 4.243
746 75 2 6.120 28.122 4.243
747 75 2 7.022 27.690 4.243
748 75 2 7.924 27.258 4.243
749 75 2 8.826 26.826 4.243
750 75 2 9.728 26.394 4.243
751 76 1 4.593 27.330 0.707
752 76 1 5.526 26.970 0.707
753 76 1 6.459 26.609 0.707
754 76 1 7.392 26.249 0.707
755 76 1 8.325 25.889 0.707
756 76 1 9.258 25.529 0.707
757 76 1 10.191 25.169 0.707
758 76 1 11.124 24.808 0.707
759 76 1 12.056 24.448 0.707
760 76 1 12.989 24.088 0.707
761 76 1 13.922 23.728 0.707
762 76 1 14.855 23.368 0.707
763 77 1 4.593 27.330 2.121
764 77 1 5.526 26.970 2.121
765 77 1 6.459 26.609 2.121
766 77 1 7.392 26.249 2.121
767 77 1 8.325 25.889 2.121
768 77 1 9.258 25.529 2.121
769 77 1 10.191 25.169 2.121
770 77 1 11.124 24.808 2.121
771 77 1 12.056 24.448 2.121
772 77 1 12.989 24.088 2.121
773 77 1 13.922 23.728 2.121
774 77 1 14.855 23.368 2.121
775 78 2 4.593 27.330 4.950
776 78 2 5.526 26.970 4.950
777 78 2 6.459 26.609 4.950
778 78 2 7.392 26.249 4.950
779 78 2 8.325 25.889 4.950
780 78 2 9.258 25.529 4.950
781 79 1 3.977 25.487 0.707
782 79 1 4.943 25.232 0.707
783 79 1 5.910 24.977 0.707
784 79 1 6.877 24.722 0.707
785 79 1 7.844 24.466 0.707
786 79 1 8.811 24.211 0.707
787 79 1 9.778 23.956 0.707
788 79 1 10.745 23.701 0.707
789 79 1 11.712 23.446 0.707
790 79 1 12.679 23.191 0.707
791 79 1 13.646 22.936 0.707
792 79 1 14.613 22.681 0.707
793 80 1 3.977 25.487 2.121
794 80 1 4.943 25.232 2.121
795 80 1 5.910 24.977 2.121
796 80 1 6.877 24.722 2.121
797 80 1 7.844 24.466 2.121
798 80 1 8.811 24.211 2.121
799 80 1 9.778 23.956 2.121
800 80 1 10.745 23.701 2.121
801 80 1 11.712 23.446 2.121
802 80 1 12.679 23.191 2.121
803 80 1 13.646 22.936 2.121
804 80 1 14.613 22.681 2.121
805 81 2 3.977 25.487 4.950
806 81 2 4.943 25.232 4.950
807 81 2 5.910 24.977 4.950
808 81 2 6.877 24.722 4.950
809 81 2 7.844 24.466 4.950
810 81 2 8.811 24.211 4.950
811 82 1 3.340 23.031 0.000
812 82 1 4.333 22.917 0.000
813 82 1 5.327 22.802 0.000
814 82 1 6.320 22.688 0.000
815 82 1 7.313 22.573 0.000
816 82 1 8.307 22.459 0.000
817 82 1 9.300 22.344 0.000
818 82 1 10.294 22.230 0.000
819 82 1 11.287 22.115 0.000
820 82 1 12.281 22.001 0.000
821 82 1 13.274 21.886 0.000
822 82 1 14.267 21.772 0.000
823 83 1 3.340 23.031 2.828
824 83 1 4.333 22.917 2.828
825 83 1 5.327 22.802 2.828
826 83 1 6.320 22.688 2.828
827 83 1 7.313 22.573 2.828
828 83 1 8.307 22.459 2.828
829 83 1 9.300 22.344 2.828
830 83 1 10.294 22.230 2.828
831 83 1 11.287 22.115 2.828
832 83 1 12.281 22.001 2.828
833 83 1 13.274 21.886 2.828
834 83 1 14.267 21.772 2.828
835 84 2 3.340 23.031 4.243
836 84 2 4.333 22.917 4.243
837 84 2 5.327 22.802 4.243
838 84 2 6.320 22.688 4.243
839 84 2 7.313 22.573 4.243
840 84 2 8.307 22.459 4.243
841 85 1 3.357 21.185 0.707
842 85 1 4.357 21.174 0.707
843 85 1 5.357 21.164 0.707
844 85 1 6.357 21.153 0.707
845 85 1 7.357 21.142 0.707
846 85 1 8.357 21.131 0.707
847 85 1 9.357 21.121 0.707
848 85 1 10.357 21.110 0.707
849 85 1 11.356 21.099 0.707
850 85 1 12.356 21.089 0.707
851 85 1 13.356 21.078 0.707
852 85 1 14.356 21.067 0.707
853 86 1 3.357 21.185 2.121
854 86 1 4.357 21.174 2.121
855 86 1 5.357 21.164 2.121
856 86 1 6.357 21.153 2.121
857 86 1 7.357 21.142 2.121
858 86 1 8.357 21.131 2.121
859 86 1 9.357 21.121 2.121
860 86 1 10.357 21.110 2.121
861 86 1 11.356 21.099 2.121
862 86 1 12.356 21.089 2.121
863 86 1 13.356 21.078 2.121
864 86 1 14.356 21.067 2.121
865 87 2 3.357 21.185 4.950
866 87 2 4.357 21.174 4.950
867 87 2 5.357 21.164 4.950
868 87 2 6.357 21.153 4.950
869 87 2 7.357 21.142 4.950
870 87 2 8.357 21.131 4.950
871 88 1 3.346 19.340 0.000
872 88 1 4.341 19.433 0.000
873 88 1 5.337 19.526 0.000
874 88 1 6.332 19.620 0.000
875 88 1 7.328 19.713 0.000
876 88 1 8.324 19.807 0.000
877 88 1 9.319 19.900 0.000
878 88 1 10.315 19.994 0.000
879 88 1 11.310 20.087 0.000
880 88 1 12.306 20.181 0.000
881 88 1 13.302 20.274 0.000
882 88 1 14.297 20.368 0.000
883 89 1 3.346 19.340 2.828
884 89 1 4.341 19.433 2.828
885 89 1 5.337 19.526 2.828
886 89 1 6.332 19.620 2.828
887 89 1 7.328 19.713 2.828
888 89 1 8.324 19.807 2.828
889 89 1 9.319 19.900 2.828
890 89 1 10.315 19.994 2.828
891 89 1 11.310 20.087 2.828
892 89 1 12.306 20.181 2.828
893 89 1 13.302 20.274 2.828
894 89 1 14.297 20.368 2.828
895 90 2 3.335 18.723 4.950
896 90 2 4.327 18.851 4.950
897 90 2 5.319 18.978 4.950
898 90 2 6.311 19.106 4.950
899 90 2 7.303 19.234 4.950
900 90 2 8.295 19.361 4.950
901 91 1 3.288 16.865 0.000
902 91 1 4.262 17.093 0.000
903 91 1 5.236 17.320 0.000
904 91 1 6.209 17.547 0.000
905 91 1 7.183 17.774 0.000
906 91 1 8.157 18.001 0.000
907 91 1 9.131 18.229 0.000
908 91 1 10.105 18.456 0.000
909 91 1 11.079 18.683 0.000
910 91 1 12.053 18.910 0.000
911 91 1 13.026 19.137 0.000
912 91 1 14.000 19.364 0.000
913 92 1 3.288 16.865 2.828
914 92 1 4.262 17.093 2.828
915 92 1 5.236 17.320 2.828
916 92 1 6.209 17.547 2.828
917 92 1 7.183 17.774 2.828
918 92 1 8.157 18.001 2.828
919 92 1 9.131 18.229 2.828
920 92 1 10.105 18.456 2.828
921 92 1 11.079 18.683 2.828
922 92 1 12.053 18.910 2.828
923 92 1 13.026 19.137 2.828
924 92 1 14.000 19.364 2.828
925 93 2 3.306 17.486 4.950
926 93 2 4.287 17.681 4.950
927 93 2 5.268 17.876 4.950
928 93 2 6.249 18.070 4.950
929 93 2 7.230 18.265 4.950
930 93 2 8.211 18.459 4.950
931 94 1 3.915 15.018 0.000
932 94 1 4.859 15.348 0.000
933 94 1 5.803 15.678 0.000
934 94 1 6.747 16.009 0.000
935 94 1 7.691 16.339 0.000
936 94 1 8.635 16.669 0.000
937 94 1 9.579 17.000 0.000
938 94 1 10.522 17.330 0.000
939 94 1 11.466 17.661 0.000
940 94 1 12.410 17.991 0.000
941 94 1 13.354 18.321 0.000
942 94 1 14.298 18.652 0.000
943 95 1 3.915 15.018 2.828
944 95 1 4.859 15.348 2.828
945 95 1 5.803 15.678 2.828
946 95 1 6.747 16.009 2.828
947 95 1 7.691 16.339 2.828
948 95 1 8.635 16.669 2.828
949 95 1 9.579 17.000 2.828
950 95 1 10.522 17.330 2.828
951 95 1 11.466 17.661 2.828
952 95 1 12.410 17.991 2.828
953 95 1 13.354 18.321 2.828
954 95 1 14.298 18.652 2.828
955 96 2 3.943 15.643 4.950
956 96 2 4.897 15.942 4.950
957 96 2 5.851 16.242 4.950
958 96 2 6.805 16.541 4.950
959 96 2 7.759 16.841 4.950
960 96 2 8.713 17.140 4.950
961 97 1 4.515 13.159 0.000
962 97 1 5.418 13.588 0.000
963 97 1 6.321 14.018 0.000
964 97 1 7.224 14.447 0.000
965 97 1 8.127 14.877 0.000
966 97 1 9.030 15.306 0.000
967 97 1 9.933 15.736 0.000
968 97 1 10.836 16.165 0.000
969 97 1 11.739 16.594 0.000
970 97 1 12.642 17.024 0.000
971 97 1 13.545 17.453 0.000
972 97 1 14.449 17.883 0.000
973 98 1 4.515 13.159 2.828
974 98 1 5.418 13.588 2.828
975 98 1 6.321 14.018 2.828
976 98 1 7.224 14.447 2.828
977 98 1 8.127 14.877 2.828
978 98 1 9.030 15.306 2.828
979 98 1 9.933 15.736 2.828
980 98 1 10.836 16.165 2.828
981 98 1 11.739 16.594 2.828
982 98 1 12.642 17.024 2.828
983 98 1 13.545 17.453 2.828
984 98 1 14.449 17.883 2.828
985 99 2 4.549 13.791 4.950
986 99 2 5.465 14.192 4.950
987 99 2 6.381 14.594 4.950
988 99 2 7.297 14.995 4.950
989 99 2 8.213 15.396 4.950
990 99 2 9.128 15.798 4.950
991 100 1 5.813 11.962 0.000
992 100 1 6.672 12.473 0.000
993 100 1 7.532 12.984 0.000
994 100 1 8.391 13.496 0.000
995 100 1 9.250 14.007 0.000
996 100 1 10.110 14.518 0.000
997 100 1 10.969 15.030 0.000
998 100 1 11.828 15.541 0.000
999 100 1 12.688 16.053 0.000
1000 100 1 13.547 16.564 0.000
1001 100 1 14.407 17.075 0.000
1002 100 1 15.266 17.587 0.000
1003 101 1 5.813 11.962 2.828
1004 101 1 6.672 12.473 2.828
1005 101 1 7.532 12.984 2.828
1006 101 1 8.391 13.496 2.828
1007 101 1 9.250 14.007 2.828
1008 101 1 10.110 14.518 2.828
1009 101 1 10.969 15.030 2.828
1010 101 1 11.828 15.541 2.828
1011 101 1 12.688 16.053 2.828
1012 101 1 13.547 16.564 2.828
1013 101 1 14.407 17.075 2.828
1014 101 1 15.266 17.587 2.828
1015 102 2 5.772 11.321 4.950
1016 102 2 6.616 11.857 4.950
1017 102 2 7.460 12.394 4.950
1018 102 2 8.304 12.930 4.950
1019 102 2 9.148 13.466 4.950
1020 102 2 9.992 14.003 4.950
1021 103 1 7.040 10.115 0.707
1022 103 1 7.828 10.730 0.707
1023 103 1 8.617 11.344 0.707
1024 103 1 9.405 11.959 0.707
1025 103 1 10.194 12.574 0.707
1026 103 1 10.983 13.189 0.707
1027 103 1 11.771 13.804 0.707
1028 103 1 12.560 14.419 0.707
1029 103 1 13.349 15.034 0.707
1030 103 1 14.137 15.649 0.707
1031 103 1 14.926 16.263 0.707
1032 103 1 15.715 16.878 0.707
1033 104 1 7.040 10.115 2.121
1034 104 1 7.828 10.730 2.121
1035 104 1 8.617 11.344 2.121
1036 104 1 9.405 11.959 2.121
1037 104 1 10.194 12.574 2.121
1038 104 1 10.983 13.189 2.121