Bottlebrush by CG beads written by gc 

20 atoms
19 bonds
0 angles
0 dihedrals
0 impropers

2 atom types
1 bond types

-3.000 22.000 xlo xhi
-3.000 22.000 ylo yhi
-3.000 22.000 zlo zhi

Masses

  1 1
  2 1

Atoms

1 1 1 0.0000 0.0000 0.0000
2 1 1 0.0000 0.0000 1.0000
3 1 1 0.0000 0.0000 2.0000
4 1 1 0.0000 0.0000 3.0000
5 1 1 0.0000 0.0000 4.0000
6 1 1 0.0000 0.0000 5.0000
7 1 1 0.0000 0.0000 6.0000
8 1 1 0.0000 0.0000 7.0000
9 1 1 0.0000 0.0000 8.0000
10 1 1 0.0000 0.0000 9.0000
11 1 1 0.0000 0.0000 10.0000
12 1 1 0.0000 0.0000 11.0000
13 1 1 0.0000 0.0000 12.0000
14 1 1 0.0000 0.0000 13.0000
15 1 1 0.0000 0.0000 14.0000
16 1 1 0.0000 0.0000 15.0000
17 1 1 0.0000 0.0000 16.0000
18 1 1 0.0000 0.0000 17.0000
19 1 1 0.0000 0.0000 18.0000
20 1 1 0.0000 0.0000 19.0000

Bonds

1 1 1 2
2 1 2 3
3 1 3 4
4 1 4 5
5 1 5 6
6 1 6 7
7 1 7 8
8 1 8 9
9 1 9 10
10 1 10 11
11 1 11 12
12 1 12 13
13 1 13 14
14 1 14 15
15 1 15 16
16 1 16 17
17 1 17 18
18 1 18 19
19 1 19 20
