lammps data file written by polyGraft 

536 atoms
1912 bonds
0 angles
0 dihedrals
0 impropers

3 atom types
5 bond types
0 angle types
0 dihedral types
0 improper types

0.000 9.192 xlo xhi
0.000 9.192 ylo yhi
0.000 15.771 zlo zhi

Atoms

1 1 1 1.414 0.707 4.771
2 1 1 1.414 0.707 5.771
3 1 1 1.414 0.707 6.771
4 1 1 1.414 0.707 7.771
5 1 1 1.414 0.707 8.771
6 1 1 1.414 0.707 9.771
7 1 1 1.414 0.707 10.771
8 1 1 1.414 0.707 11.771
9 1 1 1.414 0.707 12.771
10 1 1 1.414 0.707 13.771
11 1 1 1.414 0.707 14.771
12 1 1 1.414 0.707 15.771
13 2 1 1.414 3.536 4.771
14 2 1 1.414 3.536 5.771
15 2 1 1.414 3.536 6.771
16 2 1 1.414 3.536 7.771
17 2 1 1.414 3.536 8.771
18 2 1 1.414 3.536 9.771
19 2 1 1.414 3.536 10.771
20 2 1 1.414 3.536 11.771
21 2 1 1.414 3.536 12.771
22 2 1 1.414 3.536 13.771
23 2 1 1.414 3.536 14.771
24 2 1 1.414 3.536 15.771
25 3 1 0.707 5.657 4.771
26 3 1 0.707 5.657 5.771
27 3 1 0.707 5.657 6.771
28 3 1 0.707 5.657 7.771
29 3 1 0.707 5.657 8.771
30 3 1 0.707 5.657 9.771
31 3 1 0.707 5.657 10.771
32 3 1 0.707 5.657 11.771
33 3 1 0.707 5.657 12.771
34 3 1 0.707 5.657 13.771
35 3 1 0.707 5.657 14.771
36 3 1 0.707 5.657 15.771
37 4 1 1.414 7.778 4.771
38 4 1 1.414 7.778 5.771
39 4 1 1.414 7.778 6.771
40 4 1 1.414 7.778 7.771
41 4 1 1.414 7.778 8.771
42 4 1 1.414 7.778 9.771
43 4 1 1.414 7.778 10.771
44 4 1 1.414 7.778 11.771
45 4 1 1.414 7.778 12.771
46 4 1 1.414 7.778 13.771
47 4 1 1.414 7.778 14.771
48 4 1 1.414 7.778 15.771
49 5 1 3.536 1.414 4.771
50 5 1 3.536 1.414 5.771
51 5 1 3.536 1.414 6.771
52 5 1 3.536 1.414 7.771
53 5 1 3.536 1.414 8.771
54 5 1 3.536 1.414 9.771
55 5 1 3.536 1.414 10.771
56 5 1 3.536 1.414 11.771
57 5 1 3.536 1.414 12.771
58 5 1 3.536 1.414 13.771
59 5 1 3.536 1.414 14.771
60 5 1 3.536 1.414 15.771
61 6 1 2.828 3.536 4.771
62 6 1 2.828 3.536 5.771
63 6 1 2.828 3.536 6.771
64 6 1 2.828 3.536 7.771
65 6 1 2.828 3.536 8.771
66 6 1 2.828 3.536 9.771
67 6 1 2.828 3.536 10.771
68 6 1 2.828 3.536 11.771
69 6 1 2.828 3.536 12.771
70 6 1 2.828 3.536 13.771
71 6 1 2.828 3.536 14.771
72 6 1 2.828 3.536 15.771
73 7 1 3.536 5.657 4.771
74 7 1 3.536 5.657 5.771
75 7 1 3.536 5.657 6.771
76 7 1 3.536 5.657 7.771
77 7 1 3.536 5.657 8.771
78 7 1 3.536 5.657 9.771
79 7 1 3.536 5.657 10.771
80 7 1 3.536 5.657 11.771
81 7 1 3.536 5.657 12.771
82 7 1 3.536 5.657 13.771
83 7 1 3.536 5.657 14.771
84 7 1 3.536 5.657 15.771
85 8 1 2.828 7.778 4.771
86 8 1 2.828 7.778 5.771
87 8 1 2.828 7.778 6.771
88 8 1 2.828 7.778 7.771
89 8 1 2.828 7.778 8.771
90 8 1 2.828 7.778 9.771
91 8 1 2.828 7.778 10.771
92 8 1 2.828 7.778 11.771
93 8 1 2.828 7.778 12.771
94 8 1 2.828 7.778 13.771
95 8 1 2.828 7.778 14.771
96 8 1 2.828 7.778 15.771
97 9 2 5.657 0.707 4.771
98 9 2 5.657 0.707 5.771
99 9 2 5.657 0.707 6.771
100 9 2 5.657 0.707 7.771
101 9 2 5.657 0.707 8.771
102 9 2 5.657 0.707 9.771
103 10 2 5.657 3.536 4.771
104 10 2 5.657 3.536 5.771
105 10 2 5.657 3.536 6.771
106 10 2 5.657 3.536 7.771
107 10 2 5.657 3.536 8.771
108 10 2 5.657 3.536 9.771
109 11 2 5.657 4.950 4.771
110 11 2 5.657 4.950 5.771
111 11 2 5.657 4.950 6.771
112 11 2 5.657 4.950 7.771
113 11 2 5.657 4.950 8.771
114 11 2 5.657 4.950 9.771
115 12 2 5.657 7.778 4.771
116 12 2 5.657 7.778 5.771
117 12 2 5.657 7.778 6.771
118 12 2 5.657 7.778 7.771
119 12 2 5.657 7.778 8.771
120 12 2 5.657 7.778 9.771
121 13 2 7.778 1.414 4.771
122 13 2 7.778 1.414 5.771
123 13 2 7.778 1.414 6.771
124 13 2 7.778 1.414 7.771
125 13 2 7.778 1.414 8.771
126 13 2 7.778 1.414 9.771
127 14 2 7.778 2.828 4.771
128 14 2 7.778 2.828 5.771
129 14 2 7.778 2.828 6.771
130 14 2 7.778 2.828 7.771
131 14 2 7.778 2.828 8.771
132 14 2 7.778 2.828 9.771
133 15 2 7.778 5.657 4.771
134 15 2 7.778 5.657 5.771
135 15 2 7.778 5.657 6.771
136 15 2 7.778 5.657 7.771
137 15 2 7.778 5.657 8.771
138 15 2 7.778 5.657 9.771
139 16 2 8.485 7.778 4.771
140 16 2 8.485 7.778 5.771
141 16 2 8.485 7.778 6.771
142 16 2 8.485 7.778 7.771
143 16 2 8.485 7.778 8.771
144 16 2 8.485 7.778 9.771
145 17 3 0.000 0.000 0.000
146 17 3 0.707 0.707 0.000
147 17 3 0.000 0.707 0.707
148 17 3 0.707 0.000 0.707
149 17 3 1.414 0.000 0.000
150 17 3 2.121 0.707 0.000
151 17 3 1.414 0.707 0.707
152 17 3 2.121 0.000 0.707
153 17 3 2.828 0.000 0.000
154 17 3 3.536 0.707 0.000
155 17 3 2.828 0.707 0.707
156 17 3 3.536 0.000 0.707
157 17 3 4.243 0.000 0.000
158 17 3 4.950 0.707 0.000
159 17 3 4.243 0.707 0.707
160 17 3 4.950 0.000 0.707
161 17 3 5.657 0.000 0.000
162 17 3 6.364 0.707 0.000
163 17 3 5.657 0.707 0.707
164 17 3 6.364 0.000 0.707
165 17 3 7.071 0.000 0.000
166 17 3 7.778 0.707 0.000
167 17 3 7.071 0.707 0.707
168 17 3 7.778 0.000 0.707
169 17 3 8.485 0.000 0.000
170 17 3 9.192 0.707 0.000
171 17 3 8.485 0.707 0.707
172 17 3 9.192 0.000 0.707
173 17 3 0.000 1.414 0.000
174 17 3 0.707 2.121 0.000
175 17 3 0.000 2.121 0.707
176 17 3 0.707 1.414 0.707
177 17 3 1.414 1.414 0.000
178 17 3 2.121 2.121 0.000
179 17 3 1.414 2.121 0.707
180 17 3 2.121 1.414 0.707
181 17 3 2.828 1.414 0.000
182 17 3 3.536 2.121 0.000
183 17 3 2.828 2.121 0.707
184 17 3 3.536 1.414 0.707
185 17 3 4.243 1.414 0.000
186 17 3 4.950 2.121 0.000
187 17 3 4.243 2.121 0.707
188 17 3 4.950 1.414 0.707
189 17 3 5.657 1.414 0.000
190 17 3 6.364 2.121 0.000
191 17 3 5.657 2.121 0.707
192 17 3 6.364 1.414 0.707
193 17 3 7.071 1.414 0.000
194 17 3 7.778 2.121 0.000
195 17 3 7.071 2.121 0.707
196 17 3 7.778 1.414 0.707
197 17 3 8.485 1.414 0.000
198 17 3 9.192 2.121 0.000
199 17 3 8.485 2.121 0.707
200 17 3 9.192 1.414 0.707
201 17 3 0.000 2.828 0.000
202 17 3 0.707 3.536 0.000
203 17 3 0.000 3.536 0.707
204 17 3 0.707 2.828 0.707
205 17 3 1.414 2.828 0.000
206 17 3 2.121 3.536 0.000
207 17 3 1.414 3.536 0.707
208 17 3 2.121 2.828 0.707
209 17 3 2.828 2.828 0.000
210 17 3 3.536 3.536 0.000
211 17 3 2.828 3.536 0.707
212 17 3 3.536 2.828 0.707
213 17 3 4.243 2.828 0.000
214 17 3 4.950 3.536 0.000
215 17 3 4.243 3.536 0.707
216 17 3 4.950 2.828 0.707
217 17 3 5.657 2.828 0.000
218 17 3 6.364 3.536 0.000
219 17 3 5.657 3.536 0.707
220 17 3 6.364 2.828 0.707
221 17 3 7.071 2.828 0.000
222 17 3 7.778 3.536 0.000
223 17 3 7.071 3.536 0.707
224 17 3 7.778 2.828 0.707
225 17 3 8.485 2.828 0.000
226 17 3 9.192 3.536 0.000
227 17 3 8.485 3.536 0.707
228 17 3 9.192 2.828 0.707
229 17 3 0.000 4.243 0.000
230 17 3 0.707 4.950 0.000
231 17 3 0.000 4.950 0.707
232 17 3 0.707 4.243 0.707
233 17 3 1.414 4.243 0.000
234 17 3 2.121 4.950 0.000
235 17 3 1.414 4.950 0.707
236 17 3 2.121 4.243 0.707
237 17 3 2.828 4.243 0.000
238 17 3 3.536 4.950 0.000
239 17 3 2.828 4.950 0.707
240 17 3 3.536 4.243 0.707
241 17 3 4.243 4.243 0.000
242 17 3 4.950 4.950 0.000
243 17 3 4.243 4.950 0.707
244 17 3 4.950 4.243 0.707
245 17 3 5.657 4.243 0.000
246 17 3 6.364 4.950 0.000
247 17 3 5.657 4.950 0.707
248 17 3 6.364 4.243 0.707
249 17 3 7.071 4.243 0.000
250 17 3 7.778 4.950 0.000
251 17 3 7.071 4.950 0.707
252 17 3 7.778 4.243 0.707
253 17 3 8.485 4.243 0.000
254 17 3 9.192 4.950 0.000
255 17 3 8.485 4.950 0.707
256 17 3 9.192 4.243 0.707
257 17 3 0.000 5.657 0.000
258 17 3 0.707 6.364 0.000
259 17 3 0.000 6.364 0.707
260 17 3 0.707 5.657 0.707
261 17 3 1.414 5.657 0.000
262 17 3 2.121 6.364 0.000
263 17 3 1.414 6.364 0.707
264 17 3 2.121 5.657 0.707
265 17 3 2.828 5.657 0.000
266 17 3 3.536 6.364 0.000
267 17 3 2.828 6.364 0.707
268 17 3 3.536 5.657 0.707
269 17 3 4.243 5.657 0.000
270 17 3 4.950 6.364 0.000
271 17 3 4.243 6.364 0.707
272 17 3 4.950 5.657 0.707
273 17 3 5.657 5.657 0.000
274 17 3 6.364 6.364 0.000
275 17 3 5.657 6.364 0.707
276 17 3 6.364 5.657 0.707
277 17 3 7.071 5.657 0.000
278 17 3 7.778 6.364 0.000
279 17 3 7.071 6.364 0.707
280 17 3 7.778 5.657 0.707
281 17 3 8.485 5.657 0.000
282 17 3 9.192 6.364 0.000
283 17 3 8.485 6.364 0.707
284 17 3 9.192 5.657 0.707
285 17 3 0.000 7.071 0.000
286 17 3 0.707 7.778 0.000
287 17 3 0.000 7.778 0.707
288 17 3 0.707 7.071 0.707
289 17 3 1.414 7.071 0.000
290 17 3 2.121 7.778 0.000
291 17 3 1.414 7.778 0.707
292 17 3 2.121 7.071 0.707
293 17 3 2.828 7.071 0.000
294 17 3 3.536 7.778 0.000
295 17 3 2.828 7.778 0.707
296 17 3 3.536 7.071 0.707
297 17 3 4.243 7.071 0.000
298 17 3 4.950 7.778 0.000
299 17 3 4.243 7.778 0.707
300 17 3 4.950 7.071 0.707
301 17 3 5.657 7.071 0.000
302 17 3 6.364 7.778 0.000
303 17 3 5.657 7.778 0.707
304 17 3 6.364 7.071 0.707
305 17 3 7.071 7.071 0.000
306 17 3 7.778 7.778 0.000
307 17 3 7.071 7.778 0.707
308 17 3 7.778 7.071 0.707
309 17 3 8.485 7.071 0.000
310 17 3 9.192 7.778 0.000
311 17 3 8.485 7.778 0.707
312 17 3 9.192 7.071 0.707
313 17 3 0.000 8.485 0.000
314 17 3 0.707 9.192 0.000
315 17 3 0.000 9.192 0.707
316 17 3 0.707 8.485 0.707
317 17 3 1.414 8.485 0.000
318 17 3 2.121 9.192 0.000
319 17 3 1.414 9.192 0.707
320 17 3 2.121 8.485 0.707
321 17 3 2.828 8.485 0.000
322 17 3 3.536 9.192 0.000
323 17 3 2.828 9.192 0.707
324 17 3 3.536 8.485 0.707
325 17 3 4.243 8.485 0.000
326 17 3 4.950 9.192 0.000
327 17 3 4.243 9.192 0.707
328 17 3 4.950 8.485 0.707
329 17 3 5.657 8.485 0.000
330 17 3 6.364 9.192 0.000
331 17 3 5.657 9.192 0.707
332 17 3 6.364 8.485 0.707
333 17 3 7.071 8.485 0.000
334 17 3 7.778 9.192 0.000
335 17 3 7.071 9.192 0.707
336 17 3 7.778 8.485 0.707
337 17 3 8.485 8.485 0.000
338 17 3 9.192 9.192 0.000
339 17 3 8.485 9.192 0.707
340 17 3 9.192 8.485 0.707
341 17 3 0.000 0.000 1.414
342 17 3 0.707 0.707 1.414
343 17 3 0.000 0.707 2.121
344 17 3 0.707 0.000 2.121
345 17 3 1.414 0.000 1.414
346 17 3 2.121 0.707 1.414
347 17 3 1.414 0.707 2.121
348 17 3 2.121 0.000 2.121
349 17 3 2.828 0.000 1.414
350 17 3 3.536 0.707 1.414
351 17 3 2.828 0.707 2.121
352 17 3 3.536 0.000 2.121
353 17 3 4.243 0.000 1.414
354 17 3 4.950 0.707 1.414
355 17 3 4.243 0.707 2.121
356 17 3 4.950 0.000 2.121
357 17 3 5.657 0.000 1.414
358 17 3 6.364 0.707 1.414
359 17 3 5.657 0.707 2.121
360 17 3 6.364 0.000 2.121
361 17 3 7.071 0.000 1.414
362 17 3 7.778 0.707 1.414
363 17 3 7.071 0.707 2.121
364 17 3 7.778 0.000 2.121
365 17 3 8.485 0.000 1.414
366 17 3 9.192 0.707 1.414
367 17 3 8.485 0.707 2.121
368 17 3 9.192 0.000 2.121
369 17 3 0.000 1.414 1.414
370 17 3 0.707 2.121 1.414
371 17 3 0.000 2.121 2.121
372 17 3 0.707 1.414 2.121
373 17 3 1.414 1.414 1.414
374 17 3 2.121 2.121 1.414
375 17 3 1.414 2.121 2.121
376 17 3 2.121 1.414 2.121
377 17 3 2.828 1.414 1.414
378 17 3 3.536 2.121 1.414
379 17 3 2.828 2.121 2.121
380 17 3 3.536 1.414 2.121
381 17 3 4.243 1.414 1.414
382 17 3 4.950 2.121 1.414
383 17 3 4.243 2.121 2.121
384 17 3 4.950 1.414 2.121
385 17 3 5.657 1.414 1.414
386 17 3 6.364 2.121 1.414
387 17 3 5.657 2.121 2.121
388 17 3 6.364 1.414 2.121
389 17 3 7.071 1.414 1.414
390 17 3 7.778 2.121 1.414
391 17 3 7.071 2.121 2.121
392 17 3 7.778 1.414 2.121
393 17 3 8.485 1.414 1.414
394 17 3 9.192 2.121 1.414
395 17 3 8.485 2.121 2.121
396 17 3 9.192 1.414 2.121
397 17 3 0.000 2.828 1.414
398 17 3 0.707 3.536 1.414
399 17 3 0.000 3.536 2.121
400 17 3 0.707 2.828 2.121
401 17 3 1.414 2.828 1.414
402 17 3 2.121 3.536 1.414
403 17 3 1.414 3.536 2.121
404 17 3 2.121 2.828 2.121
405 17 3 2.828 2.828 1.414
406 17 3 3.536 3.536 1.414
407 17 3 2.828 3.536 2.121
408 17 3 3.536 2.828 2.121
409 17 3 4.243 2.828 1.414
410 17 3 4.950 3.536 1.414
411 17 3 4.243 3.536 2.121
412 17 3 4.950 2.828 2.121
413 17 3 5.657 2.828 1.414
414 17 3 6.364 3.536 1.414
415 17 3 5.657 3.536 2.121
416 17 3 6.364 2.828 2.121
417 17 3 7.071 2.828 1.414
418 17 3 7.778 3.536 1.414
419 17 3 7.071 3.536 2.121
420 17 3 7.778 2.828 2.121
421 17 3 8.485 2.828 1.414
422 17 3 9.192 3.536 1.414
423 17 3 8.485 3.536 2.121
424 17 3 9.192 2.828 2.121
425 17 3 0.000 4.243 1.414
426 17 3 0.707 4.950 1.414
427 17 3 0.000 4.950 2.121
428 17 3 0.707 4.243 2.121
429 17 3 1.414 4.243 1.414
430 17 3 2.121 4.950 1.414
431 17 3 1.414 4.950 2.121
432 17 3 2.121 4.243 2.121
433 17 3 2.828 4.243 1.414
434 17 3 3.536 4.950 1.414
435 17 3 2.828 4.950 2.121
436 17 3 3.536 4.243 2.121
437 17 3 4.243 4.243 1.414
438 17 3 4.950 4.950 1.414
439 17 3 4.243 4.950 2.121
440 17 3 4.950 4.243 2.121
441 17 3 5.657 4.243 1.414
442 17 3 6.364 4.950 1.414
443 17 3 5.657 4.950 2.121
444 17 3 6.364 4.243 2.121
445 17 3 7.071 4.243 1.414
446 17 3 7.778 4.950 1.414
447 17 3 7.071 4.950 2.121
448 17 3 7.778 4.243 2.121
449 17 3 8.485 4.243 1.414
450 17 3 9.192 4.950 1.414
451 17 3 8.485 4.950 2.121
452 17 3 9.192 4.243 2.121
453 17 3 0.000 5.657 1.414
454 17 3 0.707 6.364 1.414
455 17 3 0.000 6.364 2.121
456 17 3 0.707 5.657 2.121
457 17 3 1.414 5.657 1.414
458 17 3 2.121 6.364 1.414
459 17 3 1.414 6.364 2.121
460 17 3 2.121 5.657 2.121
461 17 3 2.828 5.657 1.414
462 17 3 3.536 6.364 1.414
463 17 3 2.828 6.364 2.121
464 17 3 3.536 5.657 2.121
465 17 3 4.243 5.657 1.414
466 17 3 4.950 6.364 1.414
467 17 3 4.243 6.364 2.121
468 17 3 4.950 5.657 2.121
469 17 3 5.657 5.657 1.414
470 17 3 6.364 6.364 1.414
471 17 3 5.657 6.364 2.121
472 17 3 6.364 5.657 2.121
473 17 3 7.071 5.657 1.414
474 17 3 7.778 6.364 1.414
475 17 3 7.071 6.364 2.121
476 17 3 7.778 5.657 2.121
477 17 3 8.485 5.657 1.414
478 17 3 9.192 6.364 1.414
479 17 3 8.485 6.364 2.121
480 17 3 9.192 5.657 2.121
481 17 3 0.000 7.071 1.414
482 17 3 0.707 7.778 1.414
483 17 3 0.000 7.778 2.121
484 17 3 0.707 7.071 2.121
485 17 3 1.414 7.071 1.414
486 17 3 2.121 7.778 1.414
487 17 3 1.414 7.778 2.121
488 17 3 2.121 7.071 2.121
489 17 3 2.828 7.071 1.414
490 17 3 3.536 7.778 1.414
491 17 3 2.828 7.778 2.121
492 17 3 3.536 7.071 2.121
493 17 3 4.243 7.071 1.414
494 17 3 4.950 7.778 1.414
495 17 3 4.243 7.778 2.121
496 17 3 4.950 7.071 2.121
497 17 3 5.657 7.071 1.414
498 17 3 6.364 7.778 1.414
499 17 3 5.657 7.778 2.121
500 17 3 6.364 7.071 2.121
501 17 3 7.071 7.071 1.414
502 17 3 7.778 7.778 1.414
503 17 3 7.071 7.778 2.121
504 17 3 7.778 7.071 2.121
505 17 3 8.485 7.071 1.414
506 17 3 9.192 7.778 1.414
507 17 3 8.485 7.778 2.121
508 17 3 9.192 7.071 2.121
509 17 3 0.000 8.485 1.414
510 17 3 0.707 9.192 1.414
511 17 3 0.000 9.192 2.121
512 17 3 0.707 8.485 2.121
513 17 3 1.414 8.485 1.414
514 17 3 2.121 9.192 1.414
515 17 3 1.414 9.192 2.121
516 17 3 2.121 8.485 2.121
517 17 3 2.828 8.485 1.414
518 17 3 3.536 9.192 1.414
519 17 3 2.828 9.192 2.121
520 17 3 3.536 8.485 2.121
521 17 3 4.243 8.485 1.414
522 17 3 4.950 9.192 1.414
523 17 3 4.243 9.192 2.121
524 17 3 4.950 8.485 2.121
525 17 3 5.657 8.485 1.414
526 17 3 6.364 9.192 1.414
527 17 3 5.657 9.192 2.121
528 17 3 6.364 8.485 2.121
529 17 3 7.071 8.485 1.414
530 17 3 7.778 9.192 1.414
531 17 3 7.071 9.192 2.121
532 17 3 7.778 8.485 2.121
533 17 3 8.485 8.485 1.414
534 17 3 9.192 9.192 1.414
535 17 3 8.485 9.192 2.121
536 17 3 9.192 8.485 2.121

Bonds

1 1 1 2
2 1 2 3
3 1 3 4
4 1 4 5
5 1 5 6
6 1 6 7
7 1 7 8
8 1 8 9
9 1 9 10
10 1 10 11
11 1 11 12
12 1 13 14
13 1 14 15
14 1 15 16
15 1 16 17
16 1 17 18
17 1 18 19
18 1 19 20
19 1 20 21
20 1 21 22
21 1 22 23
22 1 23 24
23 1 25 26
24 1 26 27
25 1 27 28
26 1 28 29
27 1 29 30
28 1 30 31
29 1 31 32
30 1 32 33
31 1 33 34
32 1 34 35
33 1 35 36
34 1 37 38
35 1 38 39
36 1 39 40
37 1 40 41
38 1 41 42
39 1 42 43
40 1 43 44
41 1 44 45
42 1 45 46
43 1 46 47
44 1 47 48
45 1 49 50
46 1 50 51
47 1 51 52
48 1 52 53
49 1 53 54
50 1 54 55
51 1 55 56
52 1 56 57
53 1 57 58
54 1 58 59
55 1 59 60
56 1 61 62
57 1 62 63
58 1 63 64
59 1 64 65
60 1 65 66
61 1 66 67
62 1 67 68
63 1 68 69
64 1 69 70
65 1 70 71
66 1 71 72
67 1 73 74
68 1 74 75
69 1 75 76
70 1 76 77
71 1 77 78
72 1 78 79
73 1 79 80
74 1 80 81
75 1 81 82
76 1 82 83
77 1 83 84
78 1 85 86
79 1 86 87
80 1 87 88
81 1 88 89
82 1 89 90
83 1 90 91
84 1 91 92
85 1 92 93
86 1 93 94
87 1 94 95
88 1 95 96
89 1 97 98
90 1 98 99
91 1 99 100
92 1 100 101
93 1 101 102
94 1 103 104
95 1 104 105
96 1 105 106
97 1 106 107
98 1 107 108
99 1 109 110
100 1 110 111
101 1 111 112
102 1 112 113
103 1 113 114
104 1 115 116
105 1 116 117
106 1 117 118
107 1 118 119
108 1 119 120
109 1 121 122
110 1 122 123
111 1 123 124
112 1 124 125
113 1 125 126
114 1 127 128
115 1 128 129
116 1 129 130
117 1 130 131
118 1 131 132
119 1 133 134
120 1 134 135
121 1 135 136
122 1 136 137
123 1 137 138
124 1 139 140
125 1 140 141
126 1 141 142
127 1 142 143
128 1 143 144
129 3 145 146
130 3 145 147
131 3 145 148
132 3 146 147
133 3 146 148
134 3 146 149
135 3 146 151
136 3 146 173
137 3 146 176
138 3 146 177
139 3 147 148
140 3 147 173
141 3 147 176
142 3 147 341
143 3 147 342
144 3 147 369
145 3 148 149
146 3 148 151
147 3 148 341
148 3 148 342
149 3 148 345
150 3 149 150
151 3 149 151
152 3 149 152
153 3 150 151
154 3 150 152
155 3 150 153
156 3 150 155
157 3 150 177
158 3 150 180
159 3 150 181
160 3 151 152
161 3 151 176
162 3 151 177
163 3 151 180
164 3 151 342
165 3 151 345
166 3 151 346
167 3 151 373
168 3 152 153
169 3 152 155
170 3 152 345
171 3 152 346
172 3 152 349
173 3 153 154
174 3 153 155
175 3 153 156
176 3 154 155
177 3 154 156
178 3 154 157
179 3 154 159
180 3 154 181
181 3 154 184
182 3 154 185
183 3 155 156
184 3 155 180
185 3 155 181
186 3 155 184
187 3 155 346
188 3 155 349
189 3 155 350
190 3 155 377
191 3 156 157
192 3 156 159
193 3 156 349
194 3 156 350
195 3 156 353
196 3 157 158
197 3 157 159
198 3 157 160
199 3 158 159
200 3 158 160
201 3 158 161
202 3 158 163
203 3 158 185
204 3 158 188
205 3 158 189
206 3 159 160
207 3 159 184
208 3 159 185
209 3 159 188
210 3 159 350
211 3 159 353
212 3 159 354
213 3 159 381
214 3 160 161
215 3 160 163
216 3 160 353
217 3 160 354
218 3 160 357
219 3 161 162
220 3 161 163
221 3 161 164
222 3 162 163
223 3 162 164
224 3 162 165
225 3 162 167
226 3 162 189
227 3 162 192
228 3 162 193
229 3 163 164
230 3 163 188
231 3 163 189
232 3 163 192
233 3 163 354
234 3 163 357
235 3 163 358
236 3 163 385
237 3 164 165
238 3 164 167
239 3 164 357
240 3 164 358
241 3 164 361
242 3 165 166
243 3 165 167
244 3 165 168
245 3 166 167
246 3 166 168
247 3 166 169
248 3 166 171
249 3 166 193
250 3 166 196
251 3 166 197
252 3 167 168
253 3 167 192
254 3 167 193
255 3 167 196
256 3 167 358
257 3 167 361
258 3 167 362
259 3 167 389
260 3 168 169
261 3 168 171
262 3 168 361
263 3 168 362
264 3 168 365
265 3 169 170
266 3 169 171
267 3 169 172
268 3 170 171
269 3 170 172
270 3 170 197
271 3 170 200
272 3 171 172
273 3 171 196
274 3 171 197
275 3 171 200
276 3 171 362
277 3 171 365
278 3 171 366
279 3 171 393
280 3 172 365
281 3 172 366
282 3 173 174
283 3 173 175
284 3 173 176
285 3 174 175
286 3 174 176
287 3 174 177
288 3 174 179
289 3 174 201
290 3 174 204
291 3 174 205
292 3 175 176
293 3 175 201
294 3 175 204
295 3 175 369
296 3 175 370
297 3 175 397
298 3 176 177
299 3 176 179
300 3 176 342
301 3 176 369
302 3 176 370
303 3 176 373
304 3 177 178
305 3 177 179
306 3 177 180
307 3 178 179
308 3 178 180
309 3 178 181
310 3 178 183
311 3 178 205
312 3 178 208
313 3 178 209
314 3 179 180
315 3 179 204
316 3 179 205
317 3 179 208
318 3 179 370
319 3 179 373
320 3 179 374
321 3 179 401
322 3 180 181
323 3 180 183
324 3 180 346
325 3 180 373
326 3 180 374
327 3 180 377
328 3 181 182
329 3 181 183
330 3 181 184
331 3 182 183
332 3 182 184
333 3 182 185
334 3 182 187
335 3 182 209
336 3 182 212
337 3 182 213
338 3 183 184
339 3 183 208
340 3 183 209
341 3 183 212
342 3 183 374
343 3 183 377
344 3 183 378
345 3 183 405
346 3 184 185
347 3 184 187
348 3 184 350
349 3 184 377
350 3 184 378
351 3 184 381
352 3 185 186
353 3 185 187
354 3 185 188
355 3 186 187
356 3 186 188
357 3 186 189
358 3 186 191
359 3 186 213
360 3 186 216
361 3 186 217
362 3 187 188
363 3 187 212
364 3 187 213
365 3 187 216
366 3 187 378
367 3 187 381
368 3 187 382
369 3 187 409
370 3 188 189
371 3 188 191
372 3 188 354
373 3 188 381
374 3 188 382
375 3 188 385
376 3 189 190
377 3 189 191
378 3 189 192
379 3 190 191
380 3 190 192
381 3 190 193
382 3 190 195
383 3 190 217
384 3 190 220
385 3 190 221
386 3 191 192
387 3 191 216
388 3 191 217
389 3 191 220
390 3 191 382
391 3 191 385
392 3 191 386
393 3 191 413
394 3 192 193
395 3 192 195
396 3 192 358
397 3 192 385
398 3 192 386
399 3 192 389
400 3 193 194
401 3 193 195
402 3 193 196
403 3 194 195
404 3 194 196
405 3 194 197
406 3 194 199
407 3 194 221
408 3 194 224
409 3 194 225
410 3 195 196
411 3 195 220
412 3 195 221
413 3 195 224
414 3 195 386
415 3 195 389
416 3 195 390
417 3 195 417
418 3 196 197
419 3 196 199
420 3 196 362
421 3 196 389
422 3 196 390
423 3 196 393
424 3 197 198
425 3 197 199
426 3 197 200
427 3 198 199
428 3 198 200
429 3 198 225
430 3 198 228
431 3 199 200
432 3 199 224
433 3 199 225
434 3 199 228
435 3 199 390
436 3 199 393
437 3 199 394
438 3 199 421
439 3 200 366
440 3 200 393
441 3 200 394
442 3 201 202
443 3 201 203
444 3 201 204
445 3 202 203
446 3 202 204
447 3 202 205
448 3 202 207
449 3 202 229
450 3 202 232
451 3 202 233
452 3 203 204
453 3 203 229
454 3 203 232
455 3 203 397
456 3 203 398
457 3 203 425
458 3 204 205
459 3 204 207
460 3 204 370
461 3 204 397
462 3 204 398
463 3 204 401
464 3 205 206
465 3 205 207
466 3 205 208
467 3 206 207
468 3 206 208
469 3 206 209
470 3 206 211
471 3 206 233
472 3 206 236
473 3 206 237
474 3 207 208
475 3 207 232
476 3 207 233
477 3 207 236
478 3 207 398
479 3 207 401
480 3 207 402
481 3 207 429
482 3 208 209
483 3 208 211
484 3 208 374
485 3 208 401
486 3 208 402
487 3 208 405
488 3 209 210
489 3 209 211
490 3 209 212
491 3 210 211
492 3 210 212
493 3 210 213
494 3 210 215
495 3 210 237
496 3 210 240
497 3 210 241
498 3 211 212
499 3 211 236
500 3 211 237
501 3 211 240
502 3 211 402
503 3 211 405
504 3 211 406
505 3 211 433
506 3 212 213
507 3 212 215
508 3 212 378
509 3 212 405
510 3 212 406
511 3 212 409
512 3 213 214
513 3 213 215
514 3 213 216
515 3 214 215
516 3 214 216
517 3 214 217
518 3 214 219
519 3 214 241
520 3 214 244
521 3 214 245
522 3 215 216
523 3 215 240
524 3 215 241
525 3 215 244
526 3 215 406
527 3 215 409
528 3 215 410
529 3 215 437
530 3 216 217
531 3 216 219
532 3 216 382
533 3 216 409
534 3 216 410
535 3 216 413
536 3 217 218
537 3 217 219
538 3 217 220
539 3 218 219
540 3 218 220
541 3 218 221
542 3 218 223
543 3 218 245
544 3 218 248
545 3 218 249
546 3 219 220
547 3 219 244
548 3 219 245
549 3 219 248
550 3 219 410
551 3 219 413
552 3 219 414
553 3 219 441
554 3 220 221
555 3 220 223
556 3 220 386
557 3 220 413
558 3 220 414
559 3 220 417
560 3 221 222
561 3 221 223
562 3 221 224
563 3 222 223
564 3 222 224
565 3 222 225
566 3 222 227
567 3 222 249
568 3 222 252
569 3 222 253
570 3 223 224
571 3 223 248
572 3 223 249
573 3 223 252
574 3 223 414
575 3 223 417
576 3 223 418
577 3 223 445
578 3 224 225
579 3 224 227
580 3 224 390
581 3 224 417
582 3 224 418
583 3 224 421
584 3 225 226
585 3 225 227
586 3 225 228
587 3 226 227
588 3 226 228
589 3 226 253
590 3 226 256
591 3 227 228
592 3 227 252
593 3 227 253
594 3 227 256
595 3 227 418
596 3 227 421
597 3 227 422
598 3 227 449
599 3 228 394
600 3 228 421
601 3 228 422
602 3 229 230
603 3 229 231
604 3 229 232
605 3 230 231
606 3 230 232
607 3 230 233
608 3 230 235
609 3 230 257
610 3 230 260
611 3 230 261
612 3 231 232
613 3 231 257
614 3 231 260
615 3 231 425
616 3 231 426
617 3 231 453
618 3 232 233
619 3 232 235
620 3 232 398
621 3 232 425
622 3 232 426
623 3 232 429
624 3 233 234
625 3 233 235
626 3 233 236
627 3 234 235
628 3 234 236
629 3 234 237
630 3 234 239
631 3 234 261
632 3 234 264
633 3 234 265
634 3 235 236
635 3 235 260
636 3 235 261
637 3 235 264
638 3 235 426
639 3 235 429
640 3 235 430
641 3 235 457
642 3 236 237
643 3 236 239
644 3 236 402
645 3 236 429
646 3 236 430
647 3 236 433
648 3 237 238
649 3 237 239
650 3 237 240
651 3 238 239
652 3 238 240
653 3 238 241
654 3 238 243
655 3 238 265
656 3 238 268
657 3 238 269
658 3 239 240
659 3 239 264
660 3 239 265
661 3 239 268
662 3 239 430
663 3 239 433
664 3 239 434
665 3 239 461
666 3 240 241
667 3 240 243
668 3 240 406
669 3 240 433
670 3 240 434
671 3 240 437
672 3 241 242
673 3 241 243
674 3 241 244
675 3 242 243
676 3 242 244
677 3 242 245
678 3 242 247
679 3 242 269
680 3 242 272
681 3 242 273
682 3 243 244
683 3 243 268
684 3 243 269
685 3 243 272
686 3 243 434
687 3 243 437
688 3 243 438
689 3 243 465
690 3 244 245
691 3 244 247
692 3 244 410
693 3 244 437
694 3 244 438
695 3 244 441
696 3 245 246
697 3 245 247
698 3 245 248
699 3 246 247
700 3 246 248
701 3 246 249
702 3 246 251
703 3 246 273
704 3 246 276
705 3 246 277
706 3 247 248
707 3 247 272
708 3 247 273
709 3 247 276
710 3 247 438
711 3 247 441
712 3 247 442
713 3 247 469
714 3 248 249
715 3 248 251
716 3 248 414
717 3 248 441
718 3 248 442
719 3 248 445
720 3 249 250
721 3 249 251
722 3 249 252
723 3 250 251
724 3 250 252
725 3 250 253
726 3 250 255
727 3 250 277
728 3 250 280
729 3 250 281
730 3 251 252
731 3 251 276
732 3 251 277
733 3 251 280
734 3 251 442
735 3 251 445
736 3 251 446
737 3 251 473
738 3 252 253
739 3 252 255
740 3 252 418
741 3 252 445
742 3 252 446
743 3 252 449
744 3 253 254
745 3 253 255
746 3 253 256
747 3 254 255
748 3 254 256
749 3 254 281
750 3 254 284
751 3 255 256
752 3 255 280
753 3 255 281
754 3 255 284
755 3 255 446
756 3 255 449
757 3 255 450
758 3 255 477
759 3 256 422
760 3 256 449
761 3 256 450
762 3 257 258
763 3 257 259
764 3 257 260
765 3 258 259
766 3 258 260
767 3 258 261
768 3 258 263
769 3 258 285
770 3 258 288
771 3 258 289
772 3 259 260
773 3 259 285
774 3 259 288
775 3 259 453
776 3 259 454
777 3 259 481
778 3 260 261
779 3 260 263
780 3 260 426
781 3 260 453
782 3 260 454
783 3 260 457
784 3 261 262
785 3 261 263
786 3 261 264
787 3 262 263
788 3 262 264
789 3 262 265
790 3 262 267
791 3 262 289
792 3 262 292
793 3 262 293
794 3 263 264
795 3 263 288
796 3 263 289
797 3 263 292
798 3 263 454
799 3 263 457
800 3 263 458
801 3 263 485
802 3 264 265
803 3 264 267
804 3 264 430
805 3 264 457
806 3 264 458
807 3 264 461
808 3 265 266
809 3 265 267
810 3 265 268
811 3 266 267
812 3 266 268
813 3 266 269
814 3 266 271
815 3 266 293
816 3 266 296
817 3 266 297
818 3 267 268
819 3 267 292
820 3 267 293
821 3 267 296
822 3 267 458
823 3 267 461
824 3 267 462
825 3 267 489
826 3 268 269
827 3 268 271
828 3 268 434
829 3 268 461
830 3 268 462
831 3 268 465
832 3 269 270
833 3 269 271
834 3 269 272
835 3 270 271
836 3 270 272
837 3 270 273
838 3 270 275
839 3 270 297
840 3 270 300
841 3 270 301
842 3 271 272
843 3 271 296
844 3 271 297
845 3 271 300
846 3 271 462
847 3 271 465
848 3 271 466
849 3 271 493
850 3 272 273
851 3 272 275
852 3 272 438
853 3 272 465
854 3 272 466
855 3 272 469
856 3 273 274
857 3 273 275
858 3 273 276
859 3 274 275
860 3 274 276
861 3 274 277
862 3 274 279
863 3 274 301
864 3 274 304
865 3 274 305
866 3 275 276
867 3 275 300
868 3 275 301
869 3 275 304
870 3 275 466
871 3 275 469
872 3 275 470
873 3 275 497
874 3 276 277
875 3 276 279
876 3 276 442
877 3 276 469
878 3 276 470
879 3 276 473
880 3 277 278
881 3 277 279
882 3 277 280
883 3 278 279
884 3 278 280
885 3 278 281
886 3 278 283
887 3 278 305
888 3 278 308
889 3 278 309
890 3 279 280
891 3 279 304
892 3 279 305
893 3 279 308
894 3 279 470
895 3 279 473
896 3 279 474
897 3 279 501
898 3 280 281
899 3 280 283
900 3 280 446
901 3 280 473
902 3 280 474
903 3 280 477
904 3 281 282
905 3 281 283
906 3 281 284
907 3 282 283
908 3 282 284
909 3 282 309
910 3 282 312
911 3 283 284
912 3 283 308
913 3 283 309
914 3 283 312
915 3 283 474
916 3 283 477
917 3 283 478
918 3 283 505
919 3 284 450
920 3 284 477
921 3 284 478
922 3 285 286
923 3 285 287
924 3 285 288
925 3 286 287
926 3 286 288
927 3 286 289
928 3 286 291
929 3 286 313
930 3 286 316
931 3 286 317
932 3 287 288
933 3 287 313
934 3 287 316
935 3 287 481
936 3 287 482
937 3 287 509
938 3 288 289
939 3 288 291
940 3 288 454
941 3 288 481
942 3 288 482
943 3 288 485
944 3 289 290
945 3 289 291
946 3 289 292
947 3 290 291
948 3 290 292
949 3 290 293
950 3 290 295
951 3 290 317
952 3 290 320
953 3 290 321
954 3 291 292
955 3 291 316
956 3 291 317
957 3 291 320
958 3 291 482
959 3 291 485
960 3 291 486
961 3 291 513
962 3 292 293
963 3 292 295
964 3 292 458
965 3 292 485
966 3 292 486
967 3 292 489
968 3 293 294
969 3 293 295
970 3 293 296
971 3 294 295
972 3 294 296
973 3 294 297
974 3 294 299
975 3 294 321
976 3 294 324
977 3 294 325
978 3 295 296
979 3 295 320
980 3 295 321
981 3 295 324
982 3 295 486
983 3 295 489
984 3 295 490
985 3 295 517
986 3 296 297
987 3 296 299
988 3 296 462
989 3 296 489
990 3 296 490
991 3 296 493
992 3 297 298
993 3 297 299
994 3 297 300
995 3 298 299
996 3 298 300
997 3 298 301
998 3 298 303
999 3 298 325
1000 3 298 328
1001 3 298 329
1002 3 299 300
1003 3 299 324
1004 3 299 325
1005 3 299 328
1006 3 299 490
1007 3 299 493
1008 3 299 494
1009 3 299 521
1010 3 300 301
1011 3 300 303
1012 3 300 466
1013 3 300 493
1014 3 300 494
1015 3 300 497
1016 3 301 302
1017 3 301 303
1018 3 301 304
1019 3 302 303
1020 3 302 304
1021 3 302 305
1022 3 302 307
1023 3 302 329
1024 3 302 332
1025 3 302 333
1026 3 303 304
1027 3 303 328
1028 3 303 329
1029 3 303 332
1030 3 303 494
1031 3 303 497
1032 3 303 498
1033 3 303 525
1034 3 304 305
1035 3 304 307
1036 3 304 470
1037 3 304 497
1038 3 304 498
1039 3 304 501
1040 3 305 306
1041 3 305 307
1042 3 305 308
1043 3 306 307
1044 3 306 308
1045 3 306 309
1046 3 306 311
1047 3 306 333
1048 3 306 336
1049 3 306 337
1050 3 307 308
1051 3 307 332
1052 3 307 333
1053 3 307 336
1054 3 307 498
1055 3 307 501
1056 3 307 502
1057 3 307 529
1058 3 308 309
1059 3 308 311
1060 3 308 474
1061 3 308 501
1062 3 308 502
1063 3 308 505
1064 3 309 310
1065 3 309 311
1066 3 309 312
1067 3 310 311
1068 3 310 312
1069 3 310 337
1070 3 310 340
1071 3 311 312
1072 3 311 336
1073 3 311 337
1074 3 311 340
1075 3 311 502
1076 3 311 505
1077 3 311 506
1078 3 311 533
1079 3 312 478
1080 3 312 505
1081 3 312 506
1082 3 313 314
1083 3 313 315
1084 3 313 316
1085 3 314 315
1086 3 314 316
1087 3 314 317
1088 3 314 319
1089 3 315 316
1090 3 315 509
1091 3 315 510
1092 3 316 317
1093 3 316 319
1094 3 316 482
1095 3 316 509
1096 3 316 510
1097 3 316 513
1098 3 317 318
1099 3 317 319
1100 3 317 320
1101 3 318 319
1102 3 318 320
1103 3 318 321
1104 3 318 323
1105 3 319 320
1106 3 319 510
1107 3 319 513
1108 3 319 514
1109 3 320 321
1110 3 320 323
1111 3 320 486
1112 3 320 513
1113 3 320 514
1114 3 320 517
1115 3 321 322
1116 3 321 323